You are running Q-Chem version: 5.4.1

#
# job setting
#
local host:  amd27.cluster.com
current dir: /home/zhangyanyanLab/chenjingdan/wry
input file:  opt_cdft.inp
output file: 
nprocs     : 0
nthreads   : 2
#
# qchem installation setting
#
QC:          /soft/pcb_comp/qchem-5.4
QCAUX:       /soft/pcb_comp/qchem-5.4/qcaux
QCPROG:      /soft/pcb_comp/qchem-5.4/exe/qcprog.exe_s
QCPROG_S:    /soft/pcb_comp/qchem-5.4/exe/qcprog.exe_s
PARALLEL:    -DSERIAL
QCMPI:       openmpi
#
# qchem directory setting
#
qcrun:       qchem2901895
QCSCRATCH:   /storage/qcscratch
QCLOCALSCR:  /data
QCTMPDIR:    /data
QCFILEPREF:  /data/qchem2901895
QCSAVEDIR:   
workdirs:    /data/qchem2901895
workdir0:    /data/qchem2901895
partmpdirs =  
#
# parallel setting
#
QCRSH:           ssh
QCMPI:           openmpi
QCMPIRUN:        mpirun
QCMACHINEFILE:   /data/qchem2901895/hostfile

#
# env setting
#
exported envs:   QC QCAUX QCSCRATCH QCRUNNAME QCFILEPREF QCPROG QCPROG_S GUIFILE

Running Job 1 of 1 opt_cdft.inp
qchem opt_cdft.inp_2901895.0 /data/qchem2901895/ 0
/soft/pcb_comp/qchem-5.4/exe/qcprog.exe_s opt_cdft.inp_2901895.0 /data/qchem2901895/
                  Welcome to Q-Chem
     A Quantum Leap Into The Future Of Chemistry


 Q-Chem 5.4, Q-Chem, Inc., Pleasanton, CA (2021)

 License issued to: Westlake University, Department of Chemistry (site)

 E. Epifanovsky,  A. T. B. Gilbert,  Xintian Feng,  Joonho Lee,  Yuezhi Mao,  
 N. Mardirossian,  P. Pokhilko,  A. White,  M. Wormit,  M. P. Coons,  
 A. L. Dempwolff,  Zhengting Gan,  D. Hait,  P. R. Horn,  L. D. Jacobson,  
 I. Kaliman,  J. Kussmann,  A. W. Lange,  Ka Un Lao,  D. S. Levine,  Jie Liu,  
 S. C. McKenzie,  A. F. Morrison,  K. Nanda,  F. Plasser,  D. R. Rehn,  
 M. L. Vidal,  Zhi-Qiang You,  Ying Zhu,  B. Alam,  B. Albrecht,  
 A. Aldossary,  E. Alguire,  J. H. Andersen,  D. Barton,  K. Begam,  A. Behn,  
 Y. A. Bernard,  E. J. Berquist,  H. Burton,  A. Carreras,  K. Carter-Fenk,  
 R. Chakraborty,  A. D. Chien,  K. D. Closser,  V. Cofer-Shabica,  
 S. Dasgupta,  Jia Deng,  M. de Wergifosse,  M. Diedenhofen,  Hainam Do,  
 S. Ehlert,  Po-Tung Fang,  S. Fatehi,  Qingguo Feng,  T. Friedhoff,  
 J. Gayvert,  Qinghui Ge,  G. Gidofalvi,  M. Goldey,  J. Gomes,  
 C. Gonzalez-Espinoza,  S. Gulania,  A. Gunina,  M. W. D. Hanson-Heine,  
 P. H. P. Harbach,  A. W. Hauser,  M. F. Herbst,  M. Hernandez Vera,  
 M. Hodecker,  Z. C. Holden,  S. Houck,  Xunkun Huang,  Kerwin Hui,  
 B. C. Huynh,  M. Ivanov,  Hyunjun Ji,  Hanjie Jiang,  B. Kaduk,  S. Kaehler,  
 K. Khistyaev,  Jaehoon Kim,  P. Klunzinger,  Z. Koczor-Benda,  
 Joong Hoon Koh,  D. Kosenkov,  L. Koulias,  T. Kowalczyk,  C. M. Krauter,  
 K. Kue,  A. Kunitsa,  T. Kus,  A. Landau,  K. V. Lawler,  D. Lefrancois,  
 S. Lehtola,  Rain Li,  Yi-Pei Li,  Jiashu Liang,  M. Liebenthal,  
 Hung-Hsuan Lin,  You-Sheng Lin,  Fenglai Liu,  Kuan-Yu Liu,  
 M. Loipersberger,  A. Luenser,  A. Manjanath,  P. Manohar,  E. Mansoor,  
 S. F. Manzer,  Shan-Ping Mao,  A. V. Marenich,  T. Markovich,  S. Mason,  
 S. A. Maurer,  P. F. McLaughlin,  M. F. S. J. Menger,  J.-M. Mewes,  
 S. A. Mewes,  P. Morgante,  J. W. Mullinax,  K. J. Oosterbaan,  G. Paran,  
 Alexander C. Paul,  Suranjan K. Paul,  F. Pavosevic,  Zheng Pei,  S. Prager,  
 E. I. Proynov,  E. Ramos,  B. Rana,  A. E. Rask,  A. Rettig,  R. M. Richard,  
 F. Rob,  E. Rossomme,  T. Scheele,  M. Scheurer,  M. Schneider,  
 N. Sergueev,  S. M. Sharada,  W. Skomorowski,  D. W. Small,  C. J. Stein,  
 Yu-Chuan Su,  E. J. Sundstrom,  Zhen Tao,  J. Thirman,  T. Tsuchimochi,  
 N. M. Tubman,  S. P. Veccham,  O. Vydrov,  J. Wenzel,  J. Witte,  A. Yamada,  
 Kun Yao,  S. Yeganeh,  S. R. Yost,  A. Zech,  Igor Ying Zhang,  Xing Zhang,  
 Yu Zhang,  D. Zuev,  A. Aspuru-Guzik,  A. T. Bell,  N. A. Besley,  
 K. B. Bravaya,  B. R. Brooks,  D. Casanova,  Jeng-Da Chai,  S. Coriani,  
 C. J. Cramer,  A. E. DePrince, III,  R. A. DiStasio Jr.,  A. Dreuw,  
 B. D. Dunietz,  T. R. Furlani,  W. A. Goddard III,  S. Grimme,  
 S. Hammes-Schiffer,  T. Head-Gordon,  W. J. Hehre,  Chao-Ping Hsu,  
 T.-C. Jagau,  Yousung Jung,  A. Klamt,  Jing Kong,  D. S. Lambrecht,  
 WanZhen Liang,  N. J. Mayhall,  C. W. McCurdy,  J. B. Neaton,  
 C. Ochsenfeld,  J. A. Parkhill,  R. Peverati,  V. A. Rassolov,  Yihan Shao,  
 L. V. Slipchenko,  T. Stauch,  R. P. Steele,  J. E. Subotnik,  
 A. J. W. Thom,  A. Tkatchenko,  D. G. Truhlar,  T. Van Voorhis,  
 T. A. Wesolowski,  K. B. Whaley,  H. L. Woodcock III,  P. M. Zimmerman,  
 S. Faraji,  P. M. W. Gill,  M. Head-Gordon,  J. M. Herbert,  A. I. Krylov

 Additional authors for Version 5.4.1: 
 S. Kotaru,  Shaozhi Li,  Xiangyuan Li,  F. Matz,  A. Molle,  Haisheng Ren,  
 Yingli Su,  Hung-Yi Tsai,  C. Utku,  Fang Wang

 Contributors to earlier versions of Q-Chem not listed above: 
 R. D. Adamson,  B. Austin,  R. Baer,  J. Baker,  G. J. O. Beran,  
 K. Brandhorst,  S. T. Brown,  E. F. C. Byrd,  A. K. Chakraborty,  
 G. K. L. Chan,  Chun-Min Chang,  Yunqing Chen,  C.-L. Cheng,  
 Siu Hung Chien,  D. M. Chipman,  D. L. Crittenden,  H. Dachsel,  
 R. J. Doerksen,  A. D. Dutoi,  R. G. Edgar,  J. Fosso-Tande,  
 L. Fusti-Molnar,  D. Ghosh,  A. Ghysels,  A. Golubeva-Zadorozhnaya,  
 J. Gonthier,  M. S. Gordon,  S. R. Gwaltney,  G. Hawkins,  J. E. Herr,  
 A. Heyden,  S. Hirata,  E. G. Hohenstein,  G. Kedziora,  F. J. Keil,  
 C. Kelley,  Jihan Kim,  R. A. King,  R. Z. Khaliullin,  P. P. Korambath,  
 W. Kurlancheek,  A. Laurent,  A. M. Lee,  M. S. Lee,  S. V. Levchenko,  
 Ching Yeh Lin,  D. Liotard,  E. Livshits,  R. C. Lochan,  I. Lotan,  
 L. A. Martinez-Martinez,  P. E. Maslen,  N. Nair,  D. P. O'Neill,  
 D. Neuhauser,  E. Neuscamman,  C. M. Oana,  R. Olivares-Amaya,  R. Olson,  
 T. M. Perrine,  B. Peters,  P. A. Pieniazek,  A. Prociuk,  Y. M. Rhee,  
 J. Ritchie,  M. A. Rohrdanz,  E. Rosta,  N. J. Russ,  H. F. Schaefer III,  
 M. W. Schmidt,  N. E. Schultz,  S. Sharma,  N. Shenvi,  C. D. Sherrill,  
 A. C. Simmonett,  A. Sodt,  T. Stein,  D. Stuck,  K. S. Thanthiriwatte,  
 V. Vanovschi,  L. Vogt,  Tao Wang,  A. Warshel,  M. A. Watson,  
 C. F. Williams,  Q. Wu,  X. Xu,  Jun Yang,  W. Zhang,  Yan Zhao

 Please cite Q-Chem as follows:
 Y. Shao et al., Mol. Phys. 113, 184-215 (2015)
 DOI: 10.1080/00268976.2014.952696

 Q-Chem 5.4.1 for Intel X86 EM64T Linux

 Parts of Q-Chem use Armadillo 9.800.1 (Horizon Scraper).
 http://arma.sourceforge.net/

 Q-Chem begins on Sat Aug 20 22:00:20 2022  

 Host: 
0

     Scratch files written to /data/qchem2901895//
 Aug1521 |scratch|qcdevops|jenkins|workspace|build_RNUM 7616   
 Processing $rem in /soft/pcb_comp/qchem-5.4/config/preferences:
 Processing $rem in /home/zhangyanyanLab/chenjingdan/.qchemrc:

 Checking the input file for inconsistencies... 	...done.

--------------------------------------------------------------
User input:
--------------------------------------------------------------
$comment
https://talk.q-chem.com/t/geometry-optimization-with-constrained-dft/156/14
@jherbert
$end

$molecule
1 2
C 0.00000 0.00000 1.00000
C 0.00000 1.33200 1.00000
H -0.92878 -0.57430 1.00000
H 0.92878 -0.57430 1.00000
H 0.92878 1.90630 1.00000
H -0.92878 1.90630 1.00000
C 0.00000 -0.00000 5.00000
C -0.00000 1.33200 5.00000
H 0.92878 -0.57430 5.00000
H -0.92878 -0.57430 5.00000
H -0.92878 1.90630 5.00000
H 0.92878 1.90630 5.00000
$end

$rem
JOBTYPE OPT
METHOD wB97X-D
BASIS 6-31G(D)
UNRESTRICTED TRUE
MAX_SCF_CYCLES 100
SCF_ALGORITHM DIIS
SCF_CONVERGENCE 8
THRESH 14
SYMMETRY FALSE
SYM_IGNORE TRUE
SCF_FINAL_PRINT 1
CDFT TRUE
CDFT_THRESH 7
MEM_TOTAL 8000
MEM_STATIC 2000
SCF_GUESS SAD
$end

$cdft
-1.0
1.0 1 6
1.0
1.0 1 6 s
$end

--------------------------------------------------------------
 ----------------------------------------------------------------
             Standard Nuclear Orientation (Angstroms)
    I     Atom           X                Y                Z
 ----------------------------------------------------------------
    1      C       0.0000000000     0.0000000000     1.0000000000
    2      C       0.0000000000     1.3320000000     1.0000000000
    3      H      -0.9287800000    -0.5743000000     1.0000000000
    4      H       0.9287800000    -0.5743000000     1.0000000000
    5      H       0.9287800000     1.9063000000     1.0000000000
    6      H      -0.9287800000     1.9063000000     1.0000000000
    7      C       0.0000000000     0.0000000000     5.0000000000
    8      C       0.0000000000     1.3320000000     5.0000000000
    9      H       0.9287800000    -0.5743000000     5.0000000000
   10      H      -0.9287800000    -0.5743000000     5.0000000000
   11      H      -0.9287800000     1.9063000000     5.0000000000
   12      H       0.9287800000     1.9063000000     5.0000000000
 ----------------------------------------------------------------
 Nuclear Repulsion Energy =          98.69241484 hartrees
 There are       16 alpha and       15 beta electrons
 Requested basis set is 6-31G(d)
 There are 32 shells and 76 basis functions

 Total QAlloc Memory Limit   8000 MB
 Mega-Array Size      1956 MB
 MEM_STATIC part      2000 MB
 A cutoff of  1.0D-14 yielded    500 shell pairs
 There are      2966 function pairs
 Smallest overlap matrix eigenvalue = 7.38E-03

 Scale SEOQF with 1.000000e+00/1.000000e-01/1.000000e-01

 Standard Electronic Orientation quadrupole field applied
 Nucleus-field energy     =    -0.0000000394 hartrees
 Guess from superposition of atomic densities
 Warning:  Energy on first SCF cycle will be non-variational
 SAD guess density has 32.000000 electrons
 Long-range K will be added via erf
 Coulomb attenuation parameter = 0.2 bohr**(-1)
 An unrestricted hybrid HF-DFT SCF calculation will be
 performed using Pulay DIIS extrapolation
 Exchange:     0.2220 Hartree-Fock + 1.0000 Constrained DFT (Becke Weights) + 1.0000 wB97X-D + LR-HF
 Correlation:  1.0000 wB97X-D
 Using SG-2 standard quadrature grid
 Dispersion:   Grimme D
 SCF converges when DIIS error is below 1.0E-08
 using 2 threads for integral computing
 -------------------------------------------------------
 OpenMP Integral computing Module                
 Release: version 1.0, May 2013, Q-Chem Inc. Pittsburgh 
 -------------------------------------------------------
 -------------------------------------------------------
 OpenMP BLAS3 based DFT computing Module                
 Release: version 1.0, May 2013, Q-Chem Inc. Pittsburgh 
 -------------------------------------------------------
Constraint 0 : -1.0000000000
 -------------------------------------------------------
 OpenMP BLAS3 based DFT computing Module                
 Release: version 1.0, May 2013, Q-Chem Inc. Pittsburgh 
 -------------------------------------------------------
Constraint 1 : 1.0000000000
 -------------------------------------------------------
 OpenMP BLAS3 based DFT computing Module                
 Release: version 1.0, May 2013, Q-Chem Inc. Pittsburgh 
 -------------------------------------------------------
CDFT not converged.
CDFT not converged.
 ---------------------------------------
  Cycle       Energy         DIIS Error
 ---------------------------------------
    1    -157.5519964755      8.23E-02
CDFT not converged.
    2    -156.6999552970      6.29E-03
    3    -156.7275003239      3.56E-03
    4    -156.7337862263      3.60E-04
    5    -156.7339541641      8.65E-05
    6    -156.7339648479      2.42E-05
    7    -156.7339665327      4.01E-06
    8    -156.7339668417      9.01E-07
    9    -156.7339668614      2.19E-07
   10    -156.7339668753      6.56E-08
   11    -156.7339668765      2.88E-08
 Inaccurate integrated density:
   Number of electrons =    31
   Numerical integral  =    30.996475131411
   Relative error      =    -0.0113705438 %
Constraint 0 : -1.0000000000
Constraint 1 : 1.0000000000
 Lam   0.4965096181814211
 Lam  -0.0856079632133856
   12    -156.7339668765      8.38E-09 Convergence criterion met
 ---------------------------------------
 One-Electron    Energy =  -397.4988513599
 Total Coulomb   Energy =   166.2985880827
 Alpha Exchange  Energy =    -3.9703066377
 Beta  Exchange  Energy =    -3.7967879194
 DFT   Exchange  Energy =   -15.2285138045
 DFT Correlation Energy =    -1.2305100384
 Nuclear Repu.   Energy =    98.6924148008
 Nuclear Attr.   Energy =  -552.8877807644
 Kinetic         Energy =   155.3889294045
 <S^2> = 0.7566

                  CDFT Becke Populations
----------------------------------------------------
            Atom      Excess Electrons     Population (a.u.)    Net Spin
       1       C       -0.150582        5.849418          0.504069
       2       C       -0.150582        5.849418          0.504069
       3       H       -0.174615        0.825385         -0.002222
       4       H       -0.174803        0.825197         -0.001846
       5       H       -0.174803        0.825197         -0.001846
       6       H       -0.174615        0.825385         -0.002222
       7       C        0.174857        6.174857         -0.000231
       8       C        0.174857        6.174857         -0.000231
       9       H       -0.088309        0.911691          0.000063
      10       H       -0.088310        0.911690          0.000076
      11       H       -0.088310        0.911690          0.000076
      12       H       -0.088309        0.911691          0.000063
----------------------------------------------------

 SCF time:  CPU 17.28 s  wall 8.71 s
 Final Alpha MO Eigenvalues
            1           2           3           4           5           6
    1 -10.4123684 -10.4114552 -10.2399561 -10.2390078  -0.9721335  -0.8004472
            7           8           9          10          11          12
    1  -0.7855109  -0.6689047  -0.6166710  -0.5698269  -0.5499710  -0.4684212
           13          14          15          16          17          18
    1  -0.4565016  -0.4159470  -0.3227157  -0.2991921  -0.0240979   0.0936175
           19          20          21          22          23          24
    1   0.1096551   0.1304423   0.1681873   0.2235253   0.2973146   0.3717620
           25          26          27          28          29          30
    1   0.3756668   0.4085836   0.4478014   0.5037516   0.5068562   0.5394311
           31          32          33          34          35          36
    1   0.5504336   0.6066239   0.6121775   0.6723986   0.6910325   0.7727962
           37          38          39          40          41          42
    1   0.7849711   0.8278645   0.8500159   0.8540982   0.8769648   0.8955548
           43          44          45          46          47          48
    1   0.9133422   0.9236445   1.0739835   1.0803136   1.0890649   1.1608229
           49          50          51          52          53          54
    1   1.1640868   1.1895770   1.3156210   1.4285289   1.4464052   1.5062694
           55          56          57          58          59          60
    1   1.5894382   1.6752873   1.7960373   1.8537449   1.9567832   1.9679923
           61          62          63          64          65          66
    1   2.0307102   2.0583880   2.1597996   2.2505319   2.2515671   2.3527230
           67          68          69          70          71          72
    1   2.4376781   2.5235611   2.6661508   2.6792765   2.8669272   2.8675914
           73          74          75          76
    1   4.0822228   4.2317934   4.2680779   4.4255021
 Final Beta MO Eigenvalues
            1           2           3           4           5           6
    1 -10.4124187 -10.4115055 -10.0630841 -10.0622617  -0.9721981  -0.7856045
            7           8           9          10          11          12
    1  -0.6689270  -0.6167275  -0.5884048  -0.5499897  -0.4678704  -0.3807720
           13          14          15          16          17          18
    1  -0.2761112  -0.2336582  -0.1461318  -0.0237054   0.0939705   0.1099035
           19          20          21          22          23          24
    1   0.1309152   0.1736436   0.2238336   0.2976022   0.4082376   0.4490102
           25          26          27          28          29          30
    1   0.5170191   0.5390118   0.5511178   0.5518027   0.5897819   0.6185689
           31          32          33          34          35          36
    1   0.6190857   0.6743742   0.6821396   0.7299974   0.8281073   0.8542591
           37          38          39          40          41          42
    1   0.8662498   0.9121015   0.9128115   0.9567647   0.9690552   1.0245674
           43          44          45          46          47          48
    1   1.0566330   1.0783104   1.1137919   1.1905971   1.2475092   1.2661548
           49          50          51          52          53          54
    1   1.3392361   1.3435087   1.4283371   1.4917417   1.5060929   1.6175887
           55          56          57          58          59          60
    1   1.7958319   1.8091594   1.8538975   1.8950628   1.9568635   2.0584213
           61          62          63          64          65          66
    1   2.1826777   2.2522209   2.2570546   2.3372423   2.3540417   2.4409918
           67          68          69          70          71          72
    1   2.6526293   2.6661742   2.6796163   2.7404871   3.0460592   3.0576847
           73          74          75          76
    1   4.0840691   4.2329950   4.4663602   4.6229158
 SCF   energy in the final basis set = -156.73396688
 Total energy in the final basis set = -156.73396688
 
 --------------------------------------------------------------
 
                    Orbital Energies (a.u.)
 --------------------------------------------------------------
 
 Alpha MOs
 -- Occupied --
-10.4124 -10.4115 -10.2400 -10.2390  -0.9721  -0.8004  -0.7855  -0.6689
 -0.6167  -0.5698  -0.5500  -0.4684  -0.4565  -0.4159  -0.3227  -0.2992
 -- Virtual --
 -0.0241   0.0936   0.1097   0.1304   0.1682   0.2235   0.2973   0.3718
  0.3757   0.4086   0.4478   0.5038   0.5069   0.5394   0.5504   0.6066
  0.6122   0.6724   0.6910   0.7728   0.7850   0.8279   0.8500   0.8541
  0.8770   0.8956   0.9133   0.9236   1.0740   1.0803   1.0891   1.1608
  1.1641   1.1896   1.3156   1.4285   1.4464   1.5063   1.5894   1.6753
  1.7960   1.8537   1.9568   1.9680   2.0307   2.0584   2.1598   2.2505
  2.2516   2.3527   2.4377   2.5236   2.6662   2.6793   2.8669   2.8676
  4.0822   4.2318   4.2681   4.4255
 
 Beta MOs
 -- Occupied --
-10.4124 -10.4115 -10.0631 -10.0623  -0.9722  -0.7856  -0.6689  -0.6167
 -0.5884  -0.5500  -0.4679  -0.3808  -0.2761  -0.2337  -0.1461
 -- Virtual --
 -0.0237   0.0940   0.1099   0.1309   0.1736   0.2238   0.2976   0.4082
  0.4490   0.5170   0.5390   0.5511   0.5518   0.5898   0.6186   0.6191
  0.6744   0.6821   0.7300   0.8281   0.8543   0.8662   0.9121   0.9128
  0.9568   0.9691   1.0246   1.0566   1.0783   1.1138   1.1906   1.2475
  1.2662   1.3392   1.3435   1.4283   1.4917   1.5061   1.6176   1.7958
  1.8092   1.8539   1.8951   1.9569   2.0584   2.1827   2.2522   2.2571
  2.3372   2.3540   2.4410   2.6526   2.6662   2.6796   2.7405   3.0461
  3.0577   4.0841   4.2330   4.4664   4.6229
 --------------------------------------------------------------
 
          Ground-State Mulliken Net Atomic Charges

     Atom                 Charge (a.u.)    Spin (a.u.)
  --------------------------------------------------------
      1 C                    -0.155238       0.544844
      2 C                    -0.155238       0.544844
      3 H                     0.329012      -0.021622
      4 H                     0.329063      -0.021325
      5 H                     0.329063      -0.021325
      6 H                     0.329012      -0.021622
      7 C                    -0.365932      -0.002316
      8 C                    -0.365932      -0.002316
      9 H                     0.181564       0.000218
     10 H                     0.181531       0.000201
     11 H                     0.181531       0.000201
     12 H                     0.181564       0.000218
  --------------------------------------------------------
  Sum of atomic charges =     1.000000
  Sum of spin   charges =     1.000000

 -----------------------------------------------------------------
                    Cartesian Multipole Moments
 -----------------------------------------------------------------
    Charge (ESU x 10^10)
                 4.8032
    Dipole Moment (Debye)
         X       0.0010      Y       3.1989      Z       4.9846
       Tot       5.9228
    Quadrupole Moments (Debye-Ang)
        XX     -20.1756     XY       0.0006     YY     -15.2032
        XZ      -0.0049     YZ       3.3197     ZZ     -19.3950
    Octopole Moments (Debye-Ang^2)
       XXX      -0.0019    XXY     -13.4369    XYY       0.0006
       YYY     -33.2139    XXZ     -67.4148    XYZ      -0.0033
       YYZ     -61.5032    XZZ      -0.0142    YZZ     -12.9171
       ZZZ    -237.7881
    Hexadecapole Moments (Debye-Ang^3)
      XXXX     -42.7336   XXXY      -0.0013   XXYY     -27.2766
      XYYY       0.0006   YYYY    -157.8730   XXXZ      -0.0073
      XXYZ     -44.8983   XYYZ      -0.0098   YYYZ    -125.8283
      XXZZ    -316.2256   XYZZ      -0.0095   YYZZ    -328.7638
      XZZZ      -0.0248   YZZZ    -158.3669   ZZZZ   -2227.4503
 -----------------------------------------------------------------
 Mayer SCF Bond Order, atomic valence on the diagonal:

            1           2           3           4           5           6
    1   3.1580928   1.4258758   0.8767882   0.8762145  -0.0125377  -0.0125152
    2   1.4258758   3.1580928  -0.0125152  -0.0125377   0.8762145   0.8767882
    3   0.8767882  -0.0125152   0.8704800  -0.0040221   0.0072900   0.0020820
    4   0.8762145  -0.0125377  -0.0040221   0.8703969   0.0020396   0.0072900
    5  -0.0125377   0.8762145   0.0072900   0.0020396   0.8703969  -0.0040221
    6  -0.0125152   0.8767882   0.0020820   0.0072900  -0.0040221   0.8704800
    7   0.0021232   0.0020279   0.0004131   0.0007377   0.0006471   0.0004118
    8   0.0020279   0.0021232   0.0004118   0.0006471   0.0007377   0.0004131
    9   0.0000396   0.0000159  -0.0000005   0.0000248   0.0000001   0.0000010
   10   0.0000450   0.0000156   0.0000309   0.0000003   0.0000027   0.0000010
   11   0.0000156   0.0000450   0.0000010   0.0000027   0.0000003   0.0000309
   12   0.0000159   0.0000396   0.0000010   0.0000001   0.0000248  -0.0000005
            7           8           9          10          11          12
    1   0.0021232   0.0020279   0.0000396   0.0000450   0.0000156   0.0000159
    2   0.0020279   0.0021232   0.0000159   0.0000156   0.0000450   0.0000396
    3   0.0004131   0.0004118  -0.0000005   0.0000309   0.0000010   0.0000010
    4   0.0007377   0.0006471   0.0000248   0.0000003   0.0000027   0.0000001
    5   0.0006471   0.0007377   0.0000001   0.0000027   0.0000003   0.0000248
    6   0.0004118   0.0004131   0.0000010   0.0000010   0.0000309  -0.0000005
    7   3.8676633   1.9999879   0.9408243   0.9408222  -0.0101684  -0.0101635
    8   1.9999879   3.8676633  -0.0101635  -0.0101684   0.9408222   0.9408243
    9   0.9408243  -0.0101635   0.9336781  -0.0073122   0.0085192   0.0017294
   10   0.9408222  -0.0101684  -0.0073122   0.9336858   0.0017294   0.0085192
   11  -0.0101684   0.9408222   0.0085192   0.0017294   0.9336858  -0.0073122
   12  -0.0101635   0.9408243   0.0017294   0.0085192  -0.0073122   0.9336781


 Calculating analytic gradient of the SCF energy
 Gradient of SCF Energy
            1           2           3           4           5           6
    1  -0.0024658   0.0042917   0.1752703  -0.1755047  -0.1799278   0.1786134
    2   0.2102463  -0.2049740   0.1152340   0.1192265  -0.1195175  -0.1200385
    3   0.0046117  -0.0058478   0.0015970   0.0016202   0.0036161   0.0041718
            7           8           9          10          11          12
    1   0.0003792  -0.0008489   0.1759278  -0.1760184  -0.1758857   0.1761690
    2  -0.2068102   0.2065801  -0.1138379  -0.1138836   0.1140348   0.1137400
    3  -0.0035458  -0.0026216  -0.0011185  -0.0008990  -0.0008841  -0.0007001
 Max gradient component =       2.102E-01
 RMS gradient           =       1.213E-01
 Gradient time:  CPU 2.67 s  wall 1.38 s
 Geometry Optimization Parameters
   NAtoms,    NIC,     NZ,  NCons,   NDum,   NFix, NCnnct, MaxDiis
       12     522       0       0       0       0       0       0


** GEOMETRY OPTIMIZATION IN DELOCALIZED INTERNAL COORDINATES **
   Searching for a Minimum

   Optimization Cycle:   1

                       Coordinates (Angstroms)
     ATOM                X               Y               Z
      1  C         0.0000000000    0.0000000000    1.0000000000
      2  C         0.0000000000    1.3320000000    1.0000000000
      3  H        -0.9287800000   -0.5743000000    1.0000000000
      4  H         0.9287800000   -0.5743000000    1.0000000000
      5  H         0.9287800000    1.9063000000    1.0000000000
      6  H        -0.9287800000    1.9063000000    1.0000000000
      7  C         0.0000000000    0.0000000000    5.0000000000
      8  C         0.0000000000    1.3320000000    5.0000000000
      9  H         0.9287800000   -0.5743000000    5.0000000000
     10  H        -0.9287800000   -0.5743000000    5.0000000000
     11  H        -0.9287800000    1.9063000000    5.0000000000
     12  H         0.9287800000    1.9063000000    5.0000000000
   Point Group: c1    Number of degrees of freedom:    30


   Energy is   -156.733966877


 Attempting to generate delocalized internal coordinates
 Initial Hessian constructed with Jon Baker's OPTIMIZE code

 30 Hessian modes will be used to form the next step
  Hessian Eigenvalues:
     0.004976    0.005503    0.006572    0.011467    0.012478    0.012511
     0.015875    0.017281    0.017521    0.018898    0.025186    0.043338
     0.043942    0.045411    0.046823    0.048676    0.049743    0.055064
     0.064360    0.069625    0.233846    0.234364    0.236746    0.246806
     0.251152    0.253273    0.258835    0.261965    0.338894    0.402118

 Minimum search - taking simple RFO step
 Searching for Lamda that Minimizes Along All modes
 Value Taken    Lamda =  -0.55233609
 Calculated Step too Large.  Step scaled by  0.375743
 Step Taken.  Stepsize is  0.300000

                             Maximum     Tolerance    Cnvgd?
         Gradient           0.684628      0.000300      NO
         Displacement       0.295210      0.001200      NO
         Energy change     *********      0.000001      NO


 New Cartesian Coordinates Obtained by Inverse Iteration

 Displacement from previous Coordinates is:  0.316044
 ----------------------------------------------------------------
             Standard Nuclear Orientation (Angstroms)
    I     Atom           X                Y                Z
 ----------------------------------------------------------------
    1      C      -0.0000294312    -0.0273708275     0.9957088598
    2      C      -0.0001036292     1.3590836350     0.9958027579
    3      H      -0.9603849961    -0.6205966100     1.0026889071
    4      H       0.9605554425    -0.6209498379     1.0026810830
    5      H       0.9611169462     1.9529644767     1.0026864051
    6      H      -0.9611543188     1.9528987182     1.0026687912
    7      C       0.0000053807     0.0263829271     4.9953935323
    8      C       0.0000133547     1.3056069376     4.9953476868
    9      H       0.8972147412    -0.5290193467     5.0017850432
   10      H      -0.8972027423    -0.5289345627     5.0017794328
   11      H      -0.8972355317     1.8609720747     5.0017366070
   12      H       0.8972047839     1.8609624155     5.0017208938
 ----------------------------------------------------------------
 Nuclear Repulsion Energy =          98.75399884 hartrees
 There are       16 alpha and       15 beta electrons
 Applying Cartesian multipole field
    Component          Value
    ---------          -----
     (2,0,0)        1.00000E-10
     (0,2,0)        2.00000E-11
     (0,0,2)       -3.00000E-11
 Nucleus-field energy     =    -0.0000000394 hartrees
 Requested basis set is 6-31G(d)
 There are 32 shells and 76 basis functions
 A cutoff of  1.0D-14 yielded    500 shell pairs
 There are      2966 function pairs
 Smallest overlap matrix eigenvalue = 6.26E-03
 Guess MOs from SCF MO coefficient file
 Reading MOs from coefficient file
 Reading MOs from coefficient file
 Long-range K will be added via erf
 Coulomb attenuation parameter = 0.2 bohr**(-1)
 An unrestricted hybrid HF-DFT SCF calculation will be
 performed using Pulay DIIS extrapolation
 Exchange:     0.2220 Hartree-Fock + 1.0000 Constrained DFT (Becke Weights) + 1.0000 wB97X-D + LR-HF
 Correlation:  1.0000 wB97X-D
 Using SG-2 standard quadrature grid
 Dispersion:   Grimme D
 SCF converges when DIIS error is below 1.0E-08
 Geometry optimization detected.  Setting ReadMinima to 0
 Setting SaveMinima to 0
 -------------------------------------------------------
 OpenMP BLAS3 based DFT computing Module                
 Release: version 1.0, May 2013, Q-Chem Inc. Pittsburgh 
 -------------------------------------------------------
Constraint 0 : -1.0000000000
 -------------------------------------------------------
 OpenMP BLAS3 based DFT computing Module                
 Release: version 1.0, May 2013, Q-Chem Inc. Pittsburgh 
 -------------------------------------------------------
Constraint 1 : 1.0000000000
 -------------------------------------------------------
 OpenMP BLAS3 based DFT computing Module                
 Release: version 1.0, May 2013, Q-Chem Inc. Pittsburgh 
 -------------------------------------------------------
 ---------------------------------------
  Cycle       Energy         DIIS Error
 ---------------------------------------
    1    -149.4010935229      4.53E-03
    2    -156.7294065205      1.19E-03
    3    -156.7299908733      4.79E-04
    4    -156.7301332224      9.99E-05
    5    -156.7301415578      1.12E-05
    6    -156.7301417908      4.28E-06
    7    -156.7301418893      1.63E-06
    8    -156.7301419311      8.22E-07
    9    -156.7301419415      3.73E-07
   10    -156.7301419421      8.29E-08
   11    -156.7301419421      2.42E-08
 Inaccurate integrated density:
   Number of electrons =    31
   Numerical integral  =    30.996480049130
   Relative error      =    -0.0113546802 %
Constraint 0 : -1.0000000000
Constraint 1 : 1.0000000000
 Lam   0.4271398545764084
 Lam  -0.1616979783250042
   12    -156.7301419287      7.16E-09 Convergence criterion met
 ---------------------------------------
 One-Electron    Energy =  -397.7089011983
 Total Coulomb   Energy =   166.4581592442
 Alpha Exchange  Energy =    -3.9702169850
 Beta  Exchange  Energy =    -3.7986348385
 DFT   Exchange  Energy =   -15.2335095322
 DFT Correlation Energy =    -1.2310374206
 Nuclear Repu.   Energy =    98.7539988017
 Nuclear Attr.   Energy =  -553.1370075782
 Kinetic         Energy =   155.4281063799
 <S^2> = 0.7563

                  CDFT Becke Populations
----------------------------------------------------
            Atom      Excess Electrons     Population (a.u.)    Net Spin
       1       C       -0.121887        5.878113          0.507484
       2       C       -0.121365        5.878635          0.507470
       3       H       -0.188865        0.811135         -0.003893
       4       H       -0.189209        0.810791         -0.003545
       5       H       -0.189454        0.810546         -0.003576
       6       H       -0.189220        0.810780         -0.003939
       7       C        0.147627        6.147627         -0.000472
       8       C        0.147634        6.147634         -0.000468
       9       H       -0.074700        0.925300          0.000183
      10       H       -0.074686        0.925314          0.000197
      11       H       -0.074707        0.925293          0.000197
      12       H       -0.074688        0.925312          0.000183
----------------------------------------------------

 SCF time:  CPU 13.75 s  wall 6.93 s
 Final Alpha MO Eigenvalues
            1           2           3           4           5           6
    1 -10.3961641 -10.3948085 -10.3932284 -10.3925679  -0.9877245  -0.9220496
            7           8           9          10          11          12
    1  -0.7907710  -0.7050424  -0.6826949  -0.6252641  -0.5816278  -0.5498107
           13          14          15          16          17          18
    1  -0.5458187  -0.4783788  -0.4618018  -0.4272856  -0.0144544   0.0169392
           19          20          21          22          23          24
    1   0.1036093   0.1205482   0.1486108   0.2177524   0.2205935   0.2348004
           25          26          27          28          29          30
    1   0.2423990   0.3129794   0.3479235   0.3826158   0.4317292   0.4738657
           31          32          33          34          35          36
    1   0.5420765   0.5636619   0.5949647   0.5967378   0.6429607   0.6644019
           37          38          39          40          41          42
    1   0.6937263   0.7177573   0.7508123   0.7542287   0.8373196   0.8829560
           43          44          45          46          47          48
    1   0.9211831   0.9262198   0.9494407   0.9506040   0.9890519   0.9978702
           49          50          51          52          53          54
    1   1.0896858   1.1697124   1.2207296   1.2806752   1.4374808   1.4487806
           55          56          57          58          59          60
    1   1.4860753   1.5568142   1.8119573   1.8142574   1.8649694   1.8784863
           61          62          63          64          65          66
    1   1.9608874   2.0265455   2.0508096   2.1116371   2.2239205   2.3179374
           67          68          69          70          71          72
    1   2.3372964   2.4107674   2.6301356   2.6803940   2.7441473   2.7631932
           73          74          75          76
    1   4.0737223   4.1327226   4.2364970   4.2862644
 Final Beta MO Eigenvalues
            1           2           3           4           5           6
    1 -10.3962563 -10.3948998 -10.0642107 -10.0636588  -0.9878152  -0.7908584
            7           8           9          10          11          12
    1  -0.6827247  -0.6253653  -0.5587405  -0.5498342  -0.4765855  -0.3632206
           13          14          15          16          17          18
    1  -0.2494390  -0.2115505  -0.1331601  -0.0107554   0.1045542   0.1211664
           19          20          21          22          23          24
    1   0.1494176   0.1924351   0.2356122   0.3136973   0.4086082   0.4346539
           25          26          27          28          29          30
    1   0.5123884   0.5425077   0.5483250   0.5490338   0.5780833   0.6179157
           31          32          33          34          35          36
    1   0.6276127   0.6755758   0.7131783   0.7162070   0.8381632   0.8838606
           37          38          39          40          41          42
    1   0.8896440   0.9455342   0.9506674   0.9652196   0.9858698   1.0384478
           43          44          45          46          47          48
    1   1.0602883   1.0694703   1.1280385   1.2293449   1.2491348   1.2508189
           49          50          51          52          53          54
    1   1.3182386   1.3239494   1.4485619   1.4785172   1.4858416   1.5961093
           55          56          57          58          59          60
    1   1.8087162   1.8139875   1.8674947   1.9286247   2.0260862   2.1097470
           61          62          63          64          65          66
    1   2.1792135   2.2584108   2.2907385   2.3275040   2.3932587   2.4083324
           67          68          69          70          71          72
    1   2.5955872   2.6972395   2.7439396   2.7629961   2.9619258   3.0243050
           73          74          75          76
    1   4.1186284   4.2457375   4.4396063   4.6285484
 SCF   energy in the final basis set = -156.73014193
 Total energy in the final basis set = -156.73014193
 
 --------------------------------------------------------------
 
                    Orbital Energies (a.u.)
 --------------------------------------------------------------
 
 Alpha MOs
 -- Occupied --
-10.3962 -10.3948 -10.3932 -10.3926  -0.9877  -0.9220  -0.7908  -0.7050
 -0.6827  -0.6253  -0.5816  -0.5498  -0.5458  -0.4784  -0.4618  -0.4273
 -- Virtual --
 -0.0145   0.0169   0.1036   0.1205   0.1486   0.2178   0.2206   0.2348
  0.2424   0.3130   0.3479   0.3826   0.4317   0.4739   0.5421   0.5637
  0.5950   0.5967   0.6430   0.6644   0.6937   0.7178   0.7508   0.7542
  0.8373   0.8830   0.9212   0.9262   0.9494   0.9506   0.9891   0.9979
  1.0897   1.1697   1.2207   1.2807   1.4375   1.4488   1.4861   1.5568
  1.8120   1.8143   1.8650   1.8785   1.9609   2.0265   2.0508   2.1116
  2.2239   2.3179   2.3373   2.4108   2.6301   2.6804   2.7441   2.7632
  4.0737   4.1327   4.2365   4.2863
 
 Beta MOs
 -- Occupied --
-10.3963 -10.3949 -10.0642 -10.0637  -0.9878  -0.7909  -0.6827  -0.6254
 -0.5587  -0.5498  -0.4766  -0.3632  -0.2494  -0.2116  -0.1332
 -- Virtual --
 -0.0108   0.1046   0.1212   0.1494   0.1924   0.2356   0.3137   0.4086
  0.4347   0.5124   0.5425   0.5483   0.5490   0.5781   0.6179   0.6276
  0.6756   0.7132   0.7162   0.8382   0.8839   0.8896   0.9455   0.9507
  0.9652   0.9859   1.0384   1.0603   1.0695   1.1280   1.2293   1.2491
  1.2508   1.3182   1.3239   1.4486   1.4785   1.4858   1.5961   1.8087
  1.8140   1.8675   1.9286   2.0261   2.1097   2.1792   2.2584   2.2907
  2.3275   2.3933   2.4083   2.5956   2.6972   2.7439   2.7630   2.9619
  3.0243   4.1186   4.2457   4.4396   4.6285
 --------------------------------------------------------------
 
          Ground-State Mulliken Net Atomic Charges

     Atom                 Charge (a.u.)    Spin (a.u.)
  --------------------------------------------------------
      1 C                    -0.157154       0.546910
      2 C                    -0.157364       0.546842
      3 H                     0.329706      -0.022579
      4 H                     0.329789      -0.022293
      5 H                     0.329779      -0.022304
      6 H                     0.329742      -0.022595
      7 C                    -0.364673      -0.002453
      8 C                    -0.364673      -0.002445
      9 H                     0.181227       0.000238
     10 H                     0.181197       0.000221
     11 H                     0.181192       0.000221
     12 H                     0.181232       0.000238
  --------------------------------------------------------
  Sum of atomic charges =     1.000000
  Sum of spin   charges =     1.000000

 -----------------------------------------------------------------
                    Cartesian Multipole Moments
 -----------------------------------------------------------------
    Charge (ESU x 10^10)
                 4.8032
    Dipole Moment (Debye)
         X       0.0011      Y       3.1991      Z       5.0240
       Tot       5.9561
    Quadrupole Moments (Debye-Ang)
        XX     -20.0034     XY      -0.0003     YY     -14.8204
        XZ      -0.0049     YZ       3.3461     ZZ     -19.0596
    Octopole Moments (Debye-Ang^2)
       XXX      -0.0004    XXY     -13.3166    XYY       0.0019
       YYY     -32.4477    XXZ     -66.9330    XYZ      -0.0044
       YYZ     -61.1506    XZZ      -0.0140    YZZ     -12.6948
       ZZZ    -231.5576
    Hexadecapole Moments (Debye-Ang^3)
      XXXX     -42.1750   XXXY       0.0001   XXYY     -26.4893
      XYYY       0.0031   YYYY    -155.4051   XXXZ      -0.0072
      XXYZ     -44.5717   XYYZ      -0.0086   YYYZ    -125.1458
      XXZZ    -314.1473   XYZZ      -0.0104   YYZZ    -328.3674
      XZZZ      -0.0239   YZZZ    -154.2231   ZZZZ   -2164.4191
 -----------------------------------------------------------------
 Mayer SCF Bond Order, atomic valence on the diagonal:

            1           2           3           4           5           6
    1   3.1501466   1.4180751   0.8733638   0.8727622  -0.0089200  -0.0089041
    2   1.4180751   3.1500422  -0.0089326  -0.0089335   0.8727406   0.8733126
    3   0.8733638  -0.0089326   0.8713786  -0.0024851   0.0069981   0.0017113
    4   0.8727622  -0.0089335  -0.0024851   0.8712970   0.0016761   0.0069986
    5  -0.0089200   0.8727406   0.0069981   0.0016761   0.8713248  -0.0024541
    6  -0.0089041   0.8733126   0.0017113   0.0069986  -0.0024541   0.8713889
    7   0.0018843   0.0017859   0.0003379   0.0006723   0.0005780   0.0003509
    8   0.0017811   0.0018895   0.0003502   0.0005755   0.0006751   0.0003386
    9   0.0000394   0.0000102  -0.0000006   0.0000281   0.0000001   0.0000010
   10   0.0000449   0.0000096   0.0000340   0.0000002   0.0000025   0.0000006
   11   0.0000097   0.0000451   0.0000006   0.0000025   0.0000002   0.0000341
   12   0.0000102   0.0000395   0.0000010   0.0000001   0.0000282  -0.0000006
            7           8           9          10          11          12
    1   0.0018843   0.0017811   0.0000394   0.0000449   0.0000097   0.0000102
    2   0.0017859   0.0018895   0.0000102   0.0000096   0.0000451   0.0000395
    3   0.0003379   0.0003502  -0.0000006   0.0000340   0.0000006   0.0000010
    4   0.0006723   0.0005755   0.0000281   0.0000002   0.0000025   0.0000001
    5   0.0005780   0.0006751   0.0000001   0.0000025   0.0000002   0.0000282
    6   0.0003509   0.0003386   0.0000010   0.0000006   0.0000341  -0.0000006
    7   3.8839559   2.0182160   0.9424770   0.9424742  -0.0124132  -0.0124075
    8   2.0182160   3.8839561  -0.0124068  -0.0124139   0.9424755   0.9424755
    9   0.9424770  -0.0124068   0.9303688  -0.0107385   0.0090640   0.0018949
   10   0.9424742  -0.0124139  -0.0107385   0.9303710   0.0018948   0.0090626
   11  -0.0124132   0.9424755   0.0090640   0.0018948   0.9303759  -0.0107373
   12  -0.0124075   0.9424755   0.0018949   0.0090626  -0.0107373   0.9303666


 Calculating analytic gradient of the SCF energy
 Gradient of SCF Energy
            1           2           3           4           5           6
    1  -0.0026921  -0.0025314   0.1073385  -0.1104733  -0.1097976   0.1067369
    2   0.1077778  -0.1148879   0.0736747   0.0737454  -0.0756065  -0.0755681
    3   0.0288246   0.0260208   0.0155630   0.0149358   0.0138025   0.0144083
            7           8           9          10          11          12
    1  -0.5968133  -0.4356021   0.7083319  -0.1070106  -0.2772303   0.7197435
    2   0.0677566  -0.1647056  -0.5011627  -0.0633071   0.1760035   0.4962799
    3  -0.3530788  -0.2241244   0.2047548   0.0004249   0.0537947   0.2046738
 Max gradient component =       7.197E-01
 RMS gradient           =       2.675E-01
 Gradient time:  CPU 2.61 s  wall 1.32 s
 Geometry Optimization Parameters
   NAtoms,    NIC,     NZ,  NCons,   NDum,   NFix, NCnnct, MaxDiis
       12     522       0       0       0       0       0       0


** GEOMETRY OPTIMIZATION IN DELOCALIZED INTERNAL COORDINATES **
   Searching for a Minimum

   Optimization Cycle:   2

                       Coordinates (Angstroms)
     ATOM                X               Y               Z
      1  C        -0.0000294312   -0.0273708275    0.9957088598
      2  C        -0.0001036292    1.3590836350    0.9958027579
      3  H        -0.9603849961   -0.6205966100    1.0026889071
      4  H         0.9605554425   -0.6209498379    1.0026810830
      5  H         0.9611169462    1.9529644767    1.0026864051
      6  H        -0.9611543188    1.9528987182    1.0026687912
      7  C         0.0000053807    0.0263829271    4.9953935323
      8  C         0.0000133547    1.3056069376    4.9953476868
      9  H         0.8972147412   -0.5290193467    5.0017850432
     10  H        -0.8972027423   -0.5289345627    5.0017794328
     11  H        -0.8972355317    1.8609720747    5.0017366070
     12  H         0.8972047839    1.8609624155    5.0017208938
   Point Group: c1    Number of degrees of freedom:    30


   Energy is   -156.730141929

 Hessian updated using BFGS update
**WARNING** Hereditary positive definiteness endangered
 due to small product of step size times gradient change

 ** Taking Steepest Descent Step **
 Calculated Step too Large.  Step scaled by  0.252319
 Step Taken.  Stepsize is  0.300000

                             Maximum     Tolerance    Cnvgd?
         Gradient           0.830001      0.000300      NO
         Displacement       0.209425      0.001200      NO
         Energy change      0.003825      0.000001      NO


 New Cartesian Coordinates Obtained by Inverse Iteration

 Displacement from previous Coordinates is:  0.284156
 ----------------------------------------------------------------
             Standard Nuclear Orientation (Angstroms)
    I     Atom           X                Y                Z
 ----------------------------------------------------------------
    1      C      -0.0001831358    -0.0338292988     0.9923461858
    2      C      -0.0005149636     1.3663531130     0.9915095436
    3      H      -0.9680505521    -0.6337925899     1.0057995676
    4      H       0.9715644562    -0.6312125487     1.0026735683
    5      H       0.9715330652     1.9652719996     1.0012766198
    6      H      -0.9694849626     1.9660604694     1.0043587971
    7      C       0.0151151168     0.0500023262     4.9963918055
    8      C       0.0142412225     1.2846383312     4.9945966368
    9      H       0.8447624359    -0.4607896976     5.0000027314
   10      H      -0.8675752400    -0.4980130593     5.0080464463
   11      H      -0.8535726683     1.8221195922     5.0051010040
   12      H       0.8421652258     1.7951913625     4.9978970937
 ----------------------------------------------------------------
 Nuclear Repulsion Energy =          99.99347034 hartrees
 There are       16 alpha and       15 beta electrons
 Applying Cartesian multipole field
    Component          Value
    ---------          -----
     (2,0,0)        1.00000E-10
     (0,2,0)        2.00000E-11
     (0,0,2)       -3.00000E-11
 Nucleus-field energy     =    -0.0000000395 hartrees
 Requested basis set is 6-31G(d)
 There are 32 shells and 76 basis functions
 A cutoff of  1.0D-14 yielded    500 shell pairs
 There are      2966 function pairs
 Smallest overlap matrix eigenvalue = 5.23E-03
 Guess MOs from SCF MO coefficient file
 Reading MOs from coefficient file
 Reading MOs from coefficient file
 Long-range K will be added via erf
 Coulomb attenuation parameter = 0.2 bohr**(-1)
 An unrestricted hybrid HF-DFT SCF calculation will be
 performed using Pulay DIIS extrapolation
 Exchange:     0.2220 Hartree-Fock + 1.0000 Constrained DFT (Becke Weights) + 1.0000 wB97X-D + LR-HF
 Correlation:  1.0000 wB97X-D
 Using SG-2 standard quadrature grid
 Dispersion:   Grimme D
 SCF converges when DIIS error is below 1.0E-08
 Geometry optimization detected.  Setting ReadMinima to 0
 Setting SaveMinima to 0
 -------------------------------------------------------
 OpenMP BLAS3 based DFT computing Module                
 Release: version 1.0, May 2013, Q-Chem Inc. Pittsburgh 
 -------------------------------------------------------
Constraint 0 : -1.0000000000
 -------------------------------------------------------
 OpenMP BLAS3 based DFT computing Module                
 Release: version 1.0, May 2013, Q-Chem Inc. Pittsburgh 
 -------------------------------------------------------
Constraint 1 : 1.0000000000
 -------------------------------------------------------
 OpenMP BLAS3 based DFT computing Module                
 Release: version 1.0, May 2013, Q-Chem Inc. Pittsburgh 
 -------------------------------------------------------
 ---------------------------------------
  Cycle       Energy         DIIS Error
 ---------------------------------------
    1    -150.5415876500      4.48E-03
    2    -156.6946827968      1.03E-03
    3    -156.6950484596      3.16E-04
    4    -156.6951029902      1.11E-04
    5    -156.6951118947      1.86E-05
    6    -156.6951121800      6.79E-06
    7    -156.6951122497      2.08E-06
    8    -156.6951122736      7.92E-07
    9    -156.6951122844      3.37E-07
   10    -156.6951122860      9.60E-08
   11    -156.6951122525      1.98E-08
 Inaccurate integrated density:
   Number of electrons =    31
   Numerical integral  =    30.996552989205
   Relative error      =    -0.0111193897 %
Constraint 0 : -1.0000000000
Constraint 1 : 1.0000000000
 Lam   0.3862928904457998
 Lam  -0.2117821587468969
   12    -156.6951122861      7.24E-09 Convergence criterion met
 ---------------------------------------
 One-Electron    Energy =  -400.0449886682
 Total Coulomb   Energy =   167.6907702776
 Alpha Exchange  Energy =    -3.9824348009
 Beta  Exchange  Energy =    -3.8113597706
 DFT   Exchange  Energy =   -15.3049537656
 DFT Correlation Energy =    -1.2356158572
 Nuclear Repu.   Energy =    99.9934702988
 Nuclear Attr.   Energy =  -555.9120239590
 Kinetic         Energy =   155.8670352908
 <S^2> = 0.7560

                  CDFT Becke Populations
----------------------------------------------------
            Atom      Excess Electrons     Population (a.u.)    Net Spin
       1       C       -0.113908        5.886092          0.508637
       2       C       -0.113264        5.886736          0.508696
       3       H       -0.192753        0.807247         -0.004446
       4       H       -0.193347        0.806653         -0.004177
       5       H       -0.193747        0.806253         -0.004228
       6       H       -0.192982        0.807018         -0.004482
       7       C        0.108529        6.108529         -0.000627
       8       C        0.102234        6.102234         -0.000557
       9       H       -0.043701        0.956299          0.000234
      10       H       -0.066592        0.933408          0.000274
      11       H       -0.060741        0.939259          0.000269
      12       H       -0.043175        0.956825          0.000236
----------------------------------------------------

 SCF time:  CPU 13.79 s  wall 6.95 s
 Final Alpha MO Eigenvalues
            1           2           3           4           5           6
    1 -10.4862068 -10.4855994 -10.3774824 -10.3746728  -1.0071532  -1.0039608
            7           8           9          10          11          12
    1  -0.8027854  -0.7930328  -0.7011067  -0.6673739  -0.6340821  -0.6325071
           13          14          15          16          17          18
    1  -0.5538719  -0.5507243  -0.5167240  -0.4839426  -0.0790563  -0.0005899
           19          20          21          22          23          24
    1   0.1122688   0.1243396   0.1270530   0.1417667   0.1443263   0.1706904
           25          26          27          28          29          30
    1   0.2433200   0.2564462   0.2853709   0.3279108   0.4171139   0.4398793
           31          32          33          34          35          36
    1   0.4791133   0.5355784   0.5603093   0.5625716   0.5644491   0.6175591
           37          38          39          40          41          42
    1   0.6209235   0.6745694   0.6853219   0.7565711   0.8231205   0.8315628
           43          44          45          46          47          48
    1   0.8617634   0.8897462   0.8959896   0.9131774   1.0104098   1.0190472
           49          50          51          52          53          54
    1   1.0449459   1.1505939   1.1717756   1.2935218   1.3460011   1.4641404
           55          56          57          58          59          60
    1   1.4711431   1.4724664   1.7188744   1.7813426   1.8265930   1.8568673
           61          62          63          64          65          66
    1   1.8961668   1.9476343   2.1171157   2.1289762   2.1552175   2.2238386
           67          68          69          70          71          72
    1   2.4236375   2.4552646   2.5148335   2.5817523   2.8174979   2.8842937
           73          74          75          76
    1   3.9828370   4.1539110   4.1811284   4.2799748
 Final Beta MO Eigenvalues
            1           2           3           4           5           6
    1 -10.3775981 -10.3747870 -10.0570134 -10.0565109  -1.0042046  -0.8028441
            7           8           9          10          11          12
    1  -0.7011490  -0.6341084  -0.5538449  -0.5437615  -0.4844274  -0.3509136
           13          14          15          16          17          18
    1  -0.2351476  -0.1982436  -0.1220503   0.0006272   0.1153022   0.1415924
           19          20          21          22          23          24
    1   0.1708482   0.2044279   0.2478206   0.3286194   0.4163945   0.4233400
           25          26          27          28          29          30
    1   0.5082023   0.5440539   0.5536606   0.5547939   0.5817267   0.6177025
           31          32          33          34          35          36
    1   0.6381664   0.6809525   0.7196066   0.7481097   0.8602269   0.9033293
           37          38          39          40          41          42
    1   0.9134062   0.9755618   0.9830160   1.0108735   1.0211697   1.0549397
           43          44          45          46          47          48
    1   1.0639243   1.0804534   1.1508913   1.2517085   1.2584579   1.2901569
           49          50          51          52          53          54
    1   1.3202513   1.3261594   1.4638984   1.4709531   1.4831536   1.5990136
           55          56          57          58          59          60
    1   1.8172721   1.8262975   1.8961854   1.9444531   2.1286552   2.1547455
           61          62          63          64          65          66
    1   2.1864072   2.2651126   2.2865874   2.3882821   2.4227561   2.4537509
           67          68          69          70          71          72
    1   2.5887015   2.6946245   2.8173517   2.8840232   2.9470095   3.0253780
           73          74          75          76
    1   4.1490401   4.2755610   4.4395385   4.6373298
 SCF   energy in the final basis set = -156.69511229
 Total energy in the final basis set = -156.69511229
 
 --------------------------------------------------------------
 
                    Orbital Energies (a.u.)
 --------------------------------------------------------------
 
 Alpha MOs
 -- Occupied --
-10.4862 -10.4856 -10.3775 -10.3747  -1.0072  -1.0040  -0.8028  -0.7930
 -0.7011  -0.6674  -0.6341  -0.6325  -0.5539  -0.5507  -0.5167  -0.4839
 -- Virtual --
 -0.0791  -0.0006   0.1123   0.1243   0.1271   0.1418   0.1443   0.1707
  0.2433   0.2564   0.2854   0.3279   0.4171   0.4399   0.4791   0.5356
  0.5603   0.5626   0.5644   0.6176   0.6209   0.6746   0.6853   0.7566
  0.8231   0.8316   0.8618   0.8897   0.8960   0.9132   1.0104   1.0190
  1.0449   1.1506   1.1718   1.2935   1.3460   1.4641   1.4711   1.4725
  1.7189   1.7813   1.8266   1.8569   1.8962   1.9476   2.1171   2.1290
  2.1552   2.2238   2.4236   2.4553   2.5148   2.5818   2.8175   2.8843
  3.9828   4.1539   4.1811   4.2800
 
 Beta MOs
 -- Occupied --
-10.3776 -10.3748 -10.0570 -10.0565  -1.0042  -0.8028  -0.7011  -0.6341
 -0.5538  -0.5438  -0.4844  -0.3509  -0.2351  -0.1982  -0.1221
 -- Virtual --
  0.0006   0.1153   0.1416   0.1708   0.2044   0.2478   0.3286   0.4164
  0.4233   0.5082   0.5441   0.5537   0.5548   0.5817   0.6177   0.6382
  0.6810   0.7196   0.7481   0.8602   0.9033   0.9134   0.9756   0.9830
  1.0109   1.0212   1.0549   1.0639   1.0805   1.1509   1.2517   1.2585
  1.2902   1.3203   1.3262   1.4639   1.4710   1.4832   1.5990   1.8173
  1.8263   1.8962   1.9445   2.1287   2.1547   2.1864   2.2651   2.2866
  2.3883   2.4228   2.4538   2.5887   2.6946   2.8174   2.8840   2.9470
  3.0254   4.1490   4.2756   4.4395   4.6373
 --------------------------------------------------------------
 
          Ground-State Mulliken Net Atomic Charges

     Atom                 Charge (a.u.)    Spin (a.u.)
  --------------------------------------------------------
      1 C                    -0.157563       0.547523
      2 C                    -0.157880       0.547548
      3 H                     0.329956      -0.022883
      4 H                     0.329603      -0.022659
      5 H                     0.329643      -0.022676
      6 H                     0.329898      -0.022900
      7 C                    -0.363301      -0.002491
      8 C                    -0.360406      -0.002386
      9 H                     0.181887       0.000233
     10 H                     0.177046       0.000240
     11 H                     0.178985       0.000225
     12 H                     0.182132       0.000227
  --------------------------------------------------------
  Sum of atomic charges =     1.000000
  Sum of spin   charges =     1.000000

 -----------------------------------------------------------------
                    Cartesian Multipole Moments
 -----------------------------------------------------------------
    Charge (ESU x 10^10)
                 4.8032
    Dipole Moment (Debye)
         X       0.0348      Y       3.2070      Z       5.0343
       Tot       5.9692
    Quadrupole Moments (Debye-Ang)
        XX     -19.8834     XY       0.0236     YY     -14.6700
        XZ       0.1434     YZ       3.3793     ZZ     -18.6516
    Octopole Moments (Debye-Ang^2)
       XXX      -0.1558    XXY     -13.2482    XYY      -0.0868
       YYY     -32.1193    XXZ     -66.4658    XYZ       0.0960
       YYZ     -60.8292    XZZ       0.6545    YZZ     -12.2896
       ZZZ    -225.1860
    Hexadecapole Moments (Debye-Ang^3)
      XXXX     -40.5912   XXXY      -0.1626   XXYY     -25.8531
      XYYY      -0.2393   YYYY    -150.9971   XXXZ      -0.8149
      XXYZ     -44.2977   XYYZ      -0.4386   YYYZ    -124.2927
      XXZZ    -311.7365   XYZZ       0.4104   YYZZ    -326.3873
      XZZZ       2.8575   YZZZ    -149.1374   ZZZZ   -2101.1264
 -----------------------------------------------------------------
 Mayer SCF Bond Order, atomic valence on the diagonal:

            1           2           3           4           5           6
    1   3.1479089   1.4159755   0.8723249   0.8720560  -0.0079846  -0.0079126
    2   1.4159755   3.1477829  -0.0079291  -0.0080288   0.8719853   0.8723236
    3   0.8723249  -0.0079291   0.8716200  -0.0019913   0.0069766   0.0016175
    4   0.8720560  -0.0080288  -0.0019913   0.8717789   0.0016044   0.0069771
    5  -0.0079846   0.8719853   0.0069766   0.0016044   0.8717891  -0.0019593
    6  -0.0079126   0.8723236   0.0016175   0.0069771  -0.0019593   0.8716688
    7   0.0017232   0.0016172   0.0002828   0.0006131   0.0005152   0.0003031
    8   0.0016150   0.0017266   0.0003020   0.0005122   0.0006152   0.0002824
    9   0.0000472   0.0000079  -0.0000010   0.0000339  -0.0000001   0.0000013
   10   0.0000477   0.0000088   0.0000362  -0.0000000   0.0000025   0.0000003
   11   0.0000086   0.0000482   0.0000002   0.0000024  -0.0000003   0.0000364
   12   0.0000080   0.0000476   0.0000013  -0.0000001   0.0000342  -0.0000011
            7           8           9          10          11          12
    1   0.0017232   0.0016150   0.0000472   0.0000477   0.0000086   0.0000080
    2   0.0016172   0.0017266   0.0000079   0.0000088   0.0000482   0.0000476
    3   0.0002828   0.0003020  -0.0000010   0.0000362   0.0000002   0.0000013
    4   0.0006131   0.0005122   0.0000339  -0.0000000   0.0000024  -0.0000001
    5   0.0005152   0.0006152  -0.0000001   0.0000025  -0.0000003   0.0000342
    6   0.0003031   0.0002824   0.0000013   0.0000003   0.0000364  -0.0000011
    7   3.9078410   2.0428339   0.9430380   0.9448406  -0.0130374  -0.0148886
    8   2.0428339   3.9071913  -0.0148848  -0.0130529   0.9442550   0.9429868
    9   0.9430380  -0.0148848   0.9231784  -0.0152100   0.0090761   0.0010700
   10   0.9448406  -0.0130529  -0.0152100   0.9281869   0.0022134   0.0093004
   11  -0.0130374   0.9442550   0.0090761   0.0022134   0.9264796  -0.0161231
   12  -0.0148886   0.9429868   0.0010700   0.0093004  -0.0161231   0.9224354


 Calculating analytic gradient of the SCF energy
 Gradient of SCF Energy
            1           2           3           4           5           6
    1  -0.0006375  -0.0006322   0.0726239  -0.0720048  -0.0715107   0.0722980
    2   0.0687570  -0.0692627   0.0486906   0.0481843  -0.0479263  -0.0484322
    3   0.0005272   0.0006293   0.0012812   0.0013235   0.0013711   0.0013222
            7           8           9          10          11          12
    1   0.0311046   0.0253305   0.1280163  -0.1591711  -0.1520045   0.1265877
    2  -0.1687284   0.1735077  -0.0826342  -0.1028753   0.0983677   0.0823519
    3  -0.0049435  -0.0058979   0.0003002   0.0020079   0.0017367   0.0003421
 Max gradient component =       1.735E-01
 RMS gradient           =       7.722E-02
 Gradient time:  CPU 2.61 s  wall 1.31 s
 Geometry Optimization Parameters
   NAtoms,    NIC,     NZ,  NCons,   NDum,   NFix, NCnnct, MaxDiis
       12     522       0       0       0       0       0       0

 Cartesian Hessian Update
 Hessian updated using BFGS update


** GEOMETRY OPTIMIZATION IN DELOCALIZED INTERNAL COORDINATES **
   Searching for a Minimum

   Optimization Cycle:   3

                       Coordinates (Angstroms)
     ATOM                X               Y               Z
      1  C        -0.0001831358   -0.0338292988    0.9923461858
      2  C        -0.0005149636    1.3663531130    0.9915095436
      3  H        -0.9680505521   -0.6337925899    1.0057995676
      4  H         0.9715644562   -0.6312125487    1.0026735683
      5  H         0.9715330652    1.9652719996    1.0012766198
      6  H        -0.9694849626    1.9660604694    1.0043587971
      7  C         0.0151151168    0.0500023262    4.9963918055
      8  C         0.0142412225    1.2846383312    4.9945966368
      9  H         0.8447624359   -0.4607896976    5.0000027314
     10  H        -0.8675752400   -0.4980130593    5.0080464463
     11  H        -0.8535726683    1.8221195922    5.0051010040
     12  H         0.8421652258    1.7951913625    4.9978970937
   Point Group: c1    Number of degrees of freedom:    30


   Energy is   -156.695112286

 Hessian updated using BFGS update

 30 Hessian modes will be used to form the next step
  Hessian Eigenvalues:
     0.004975    0.005434    0.006562    0.011348    0.012473    0.012501
     0.014205    0.015882    0.017286    0.017803    0.018902    0.025412
     0.043350    0.043957    0.045991    0.046831    0.049200    0.053893
     0.055117    0.065536    0.070039    0.233856    0.236632    0.238462
     0.248352    0.258725    0.261802    0.268572    0.368667    3.084960

 Minimum search - taking simple RFO step
 Searching for Lamda that Minimizes Along All modes
 Value Taken    Lamda =  -0.34684427
 Calculated Step too Large.  Step scaled by  0.324828
 Step Taken.  Stepsize is  0.300000

                             Maximum     Tolerance    Cnvgd?
         Gradient           0.408846      0.000300      NO
         Displacement       0.264200      0.001200      NO
         Energy change      0.035030      0.000001      NO


 New Cartesian Coordinates Obtained by Inverse Iteration

 Displacement from previous Coordinates is:  0.293148
 ----------------------------------------------------------------
             Standard Nuclear Orientation (Angstroms)
    I     Atom           X                Y                Z
 ----------------------------------------------------------------
    1      C      -0.0000937659    -0.0583677236     0.9891379318
    2      C      -0.0002615783     1.3900211620     0.9891478603
    3      H      -0.9970965687    -0.6729899814     1.0081559739
    4      H       0.9978256393    -0.6733975157     1.0077523331
    5      H       0.9984693888     2.0056613967     1.0076419350
    6      H      -0.9983360252     2.0052914987     1.0079597494
    7      C       0.0011826705     0.0811369437     4.9884921828
    8      C       0.0010659864     1.2511972417     4.9885010753
    9      H       0.8309236235    -0.4329752828     5.0032275088
   10      H      -0.8328645431    -0.4357794653     5.0034008685
   11      H      -0.8314169187     1.7669820020     5.0034028294
   12      H       0.8306020914     1.7652197241     5.0031797516
 ----------------------------------------------------------------
 Nuclear Repulsion Energy =         100.50719168 hartrees
 There are       16 alpha and       15 beta electrons
 Applying Cartesian multipole field
    Component          Value
    ---------          -----
     (2,0,0)        1.00000E-10
     (0,2,0)        2.00000E-11
     (0,0,2)       -3.00000E-11
 Nucleus-field energy     =    -0.0000000394 hartrees
 Requested basis set is 6-31G(d)
 There are 32 shells and 76 basis functions
 A cutoff of  1.0D-14 yielded    500 shell pairs
 There are      2966 function pairs
 Smallest overlap matrix eigenvalue = 4.02E-03
 Guess MOs from SCF MO coefficient file
 Reading MOs from coefficient file
 Reading MOs from coefficient file
 Long-range K will be added via erf
 Coulomb attenuation parameter = 0.2 bohr**(-1)
 An unrestricted hybrid HF-DFT SCF calculation will be
 performed using Pulay DIIS extrapolation
 Exchange:     0.2220 Hartree-Fock + 1.0000 Constrained DFT (Becke Weights) + 1.0000 wB97X-D + LR-HF
 Correlation:  1.0000 wB97X-D
 Using SG-2 standard quadrature grid
 Dispersion:   Grimme D
 SCF converges when DIIS error is below 1.0E-08
 Geometry optimization detected.  Setting ReadMinima to 0
 Setting SaveMinima to 0
 -------------------------------------------------------
 OpenMP BLAS3 based DFT computing Module                
 Release: version 1.0, May 2013, Q-Chem Inc. Pittsburgh 
 -------------------------------------------------------
Constraint 0 : -1.0000000000
 -------------------------------------------------------
 OpenMP BLAS3 based DFT computing Module                
 Release: version 1.0, May 2013, Q-Chem Inc. Pittsburgh 
 -------------------------------------------------------
Constraint 1 : 1.0000000000
 -------------------------------------------------------
 OpenMP BLAS3 based DFT computing Module                
 Release: version 1.0, May 2013, Q-Chem Inc. Pittsburgh 
 -------------------------------------------------------
 ---------------------------------------
  Cycle       Energy         DIIS Error
 ---------------------------------------
    1    -151.0793037080      6.00E-03
    2    -156.6426683424      1.07E-03
    3    -156.6431678471      4.43E-04
    4    -156.6432980906      8.15E-05
    5    -156.6433037702      1.41E-05
    6    -156.6433040037      5.45E-06
    7    -156.6433040959      2.20E-06
    8    -156.6433041321      9.62E-07
    9    -156.6433041498      3.14E-07
   10    -156.6433041500      1.01E-07
   11    -156.6433041512      2.22E-08
   12    -156.6433041195      1.18E-08
 Inaccurate integrated density:
   Number of electrons =    31
   Numerical integral  =    30.996700425337
   Relative error      =    -0.0106437892 %
Constraint 0 : -1.0000000000
Constraint 1 : 1.0000000000
 Lam   0.3164073093990659
 Lam  -0.2941200713270787
   13    -156.6433041512      3.09E-09 Convergence criterion met
 ---------------------------------------
 One-Electron    Energy =  -401.0402559526
 Total Coulomb   Energy =   168.2503183681
 Alpha Exchange  Energy =    -3.9843522191
 Beta  Exchange  Energy =    -3.8148321828
 DFT   Exchange  Energy =   -15.3245683104
 DFT Correlation Energy =    -1.2368054942
 Nuclear Repu.   Energy =   100.5071916399
 Nuclear Attr.   Energy =  -557.1111605337
 Kinetic         Energy =   156.0709045811
 <S^2> = 0.7559

                  CDFT Becke Populations
----------------------------------------------------
            Atom      Excess Electrons     Population (a.u.)    Net Spin
       1       C       -0.090419        5.909581          0.511848
       2       C       -0.089729        5.910271          0.511823
       3       H       -0.204511        0.795489         -0.006032
       4       H       -0.205017        0.794983         -0.005749
       5       H       -0.205357        0.794643         -0.005795
       6       H       -0.204967        0.795033         -0.006095
       7       C        0.086448        6.086448         -0.000854
       8       C        0.085686        6.085686         -0.000853
       9       H       -0.043088        0.956912          0.000377
      10       H       -0.044999        0.955001          0.000395
      11       H       -0.044318        0.955682          0.000394
      12       H       -0.043029        0.956971          0.000376
----------------------------------------------------

 SCF time:  CPU 14.85 s  wall 7.48 s
 Final Alpha MO Eigenvalues
            1           2           3           4           5           6
    1 -10.6447308 -10.6442653 -10.3620336 -10.3587777  -1.1392542  -1.0208216
            7           8           9          10          11          12
    1  -0.9369985  -0.8032647  -0.8021317  -0.7713774  -0.7156422  -0.6973648
           13          14          15          16          17          18
    1  -0.6541499  -0.6422197  -0.5473638  -0.4989268  -0.2367480  -0.0368445
           19          20          21          22          23          24
    1  -0.0337599  -0.0267304   0.0147534   0.0878050   0.1122125   0.1228048
           25          26          27          28          29          30
    1   0.1418577   0.1809290   0.2558735   0.3298320   0.3424781   0.3486707
           31          32          33          34          35          36
    1   0.4029409   0.4090260   0.4402451   0.4559978   0.4703326   0.5538805
           37          38          39          40          41          42
    1   0.5592311   0.6349654   0.6537119   0.6551028   0.6791296   0.7195192
           43          44          45          46          47          48
    1   0.7301725   0.7961979   0.8618963   0.8997387   0.9343448   1.0031551
           49          50          51          52          53          54
    1   1.0389907   1.0422107   1.1950866   1.1967482   1.3421235   1.3496170
           55          56          57          58          59          60
    1   1.4423521   1.5097792   1.5587219   1.6187646   1.6699582   1.7489552
           61          62          63          64          65          66
    1   1.8561889   1.9022067   1.9151737   2.0294387   2.1916783   2.2103944
           67          68          69          70          71          72
    1   2.2868695   2.4015326   2.5031024   2.5289370   2.9676327   2.9778628
           73          74          75          76
    1   3.8020113   4.0314590   4.1654543   4.3093765
 Final Beta MO Eigenvalues
            1           2           3           4           5           6
    1 -10.3621919 -10.3589328 -10.0508612 -10.0504859  -1.0210136  -0.8022349
            7           8           9          10          11          12
    1  -0.7157198  -0.6424994  -0.5474113  -0.5122858  -0.4974464  -0.3295787
           13          14          15          16          17          18
    1  -0.2066870  -0.1724929  -0.1040472   0.0184879   0.1245853   0.1430047
           19          20          21          22          23          24
    1   0.1826184   0.2264183   0.2569857   0.3439494   0.4086715   0.4239268
           25          26          27          28          29          30
    1   0.4982226   0.5568365   0.5577884   0.5604090   0.5761350   0.6172566
           31          32          33          34          35          36
    1   0.6522789   0.6811325   0.7122027   0.7974055   0.8620875   0.9313295
           37          38          39          40          41          42
    1   0.9364056   0.9911116   1.0016915   1.0420215   1.0432063   1.0580661
           43          44          45          46          47          48
    1   1.0720526   1.0989279   1.1994380   1.2460366   1.2683407   1.3125921
           49          50          51          52          53          54
    1   1.3198895   1.3484604   1.4420309   1.4821048   1.5097430   1.5915764
           55          56          57          58          59          60
    1   1.8305270   1.8558397   1.9025159   1.9787233   2.1912101   2.1914297
           61          62          63          64          65          66
    1   2.2099267   2.2643805   2.2716292   2.3505056   2.5019157   2.5216014
           67          68          69          70          71          72
    1   2.5564755   2.6649207   2.8834421   2.9679320   2.9773144   3.0125627
           73          74          75          76
    1   4.1624187   4.3076146   4.4211276   4.6500245
 SCF   energy in the final basis set = -156.64330415
 Total energy in the final basis set = -156.64330415
 
 --------------------------------------------------------------
 
                    Orbital Energies (a.u.)
 --------------------------------------------------------------
 
 Alpha MOs
 -- Occupied --
-10.6447 -10.6443 -10.3620 -10.3588  -1.1393  -1.0208  -0.9370  -0.8033
 -0.8021  -0.7714  -0.7156  -0.6974  -0.6541  -0.6422  -0.5474  -0.4989
 -- Virtual --
 -0.2367  -0.0368  -0.0338  -0.0267   0.0148   0.0878   0.1122   0.1228
  0.1419   0.1809   0.2559   0.3298   0.3425   0.3487   0.4029   0.4090
  0.4402   0.4560   0.4703   0.5539   0.5592   0.6350   0.6537   0.6551
  0.6791   0.7195   0.7302   0.7962   0.8619   0.8997   0.9343   1.0032
  1.0390   1.0422   1.1951   1.1967   1.3421   1.3496   1.4424   1.5098
  1.5587   1.6188   1.6700   1.7490   1.8562   1.9022   1.9152   2.0294
  2.1917   2.2104   2.2869   2.4015   2.5031   2.5289   2.9676   2.9779
  3.8020   4.0315   4.1655   4.3094
 
 Beta MOs
 -- Occupied --
-10.3622 -10.3589 -10.0509 -10.0505  -1.0210  -0.8022  -0.7157  -0.6425
 -0.5474  -0.5123  -0.4974  -0.3296  -0.2067  -0.1725  -0.1040
 -- Virtual --
  0.0185   0.1246   0.1430   0.1826   0.2264   0.2570   0.3439   0.4087
  0.4239   0.4982   0.5568   0.5578   0.5604   0.5761   0.6173   0.6523
  0.6811   0.7122   0.7974   0.8621   0.9313   0.9364   0.9911   1.0017
  1.0420   1.0432   1.0581   1.0721   1.0989   1.1994   1.2460   1.2683
  1.3126   1.3199   1.3485   1.4420   1.4821   1.5097   1.5916   1.8305
  1.8558   1.9025   1.9787   2.1912   2.1914   2.2099   2.2644   2.2716
  2.3505   2.5019   2.5216   2.5565   2.6649   2.8834   2.9679   2.9773
  3.0126   4.1624   4.3076   4.4211   4.6500
 --------------------------------------------------------------
 
          Ground-State Mulliken Net Atomic Charges

     Atom                 Charge (a.u.)    Spin (a.u.)
  --------------------------------------------------------
      1 C                    -0.157435       0.549685
      2 C                    -0.157603       0.549589
      3 H                     0.329363      -0.023896
      4 H                     0.329395      -0.023659
      5 H                     0.329372      -0.023678
      6 H                     0.329376      -0.023923
      7 C                    -0.354165      -0.002572
      8 C                    -0.353518      -0.002571
      9 H                     0.176396       0.000262
     10 H                     0.176139       0.000251
     11 H                     0.176249       0.000250
     12 H                     0.176430       0.000262
  --------------------------------------------------------
  Sum of atomic charges =     1.000000
  Sum of spin   charges =     1.000000

 -----------------------------------------------------------------
                    Cartesian Multipole Moments
 -----------------------------------------------------------------
    Charge (ESU x 10^10)
                 4.8032
    Dipole Moment (Debye)
         X       0.0039      Y       3.2002      Z       5.0884
       Tot       6.0111
    Quadrupole Moments (Debye-Ang)
        XX     -19.6556     XY       0.0012     YY     -14.3450
        XZ       0.0078     YZ       3.3928     ZZ     -18.1939
    Octopole Moments (Debye-Ang^2)
       XXX      -0.0082    XXY     -13.0827    XYY       0.0003
       YYY     -31.4947    XXZ     -65.7331    XYZ       0.0033
       YYZ     -60.6299    XZZ       0.0470    YZZ     -12.0986
       ZZZ    -218.2878
    Hexadecapole Moments (Debye-Ang^3)
      XXXX     -40.3278   XXXY      -0.0114   XXYY     -24.9227
      XYYY      -0.0053   YYYY    -148.8387   XXXZ      -0.0601
      XXYZ     -43.7733   XYYZ      -0.0304   YYYZ    -124.1285
      XXZZ    -308.3795   XYZZ       0.0250   YYZZ    -326.5841
      XZZZ       0.2652   YZZZ    -145.2688   ZZZZ   -2032.6929
 -----------------------------------------------------------------
 Mayer SCF Bond Order, atomic valence on the diagonal:

            1           2           3           4           5           6
    1   3.1429580   1.4106734   0.8694215   0.8688841  -0.0046497  -0.0046491
    2   1.4106734   3.1428078  -0.0046910  -0.0046774   0.8688489   0.8693641
    3   0.8694215  -0.0046910   0.8729728  -0.0003964   0.0068173   0.0013172
    4   0.8688841  -0.0046774  -0.0003964   0.8729506   0.0012932   0.0068188
    5  -0.0046497   0.8688489   0.0068173   0.0012932   0.8729957  -0.0003483
    6  -0.0046491   0.8693641   0.0013172   0.0068188  -0.0003483   0.8730084
    7   0.0016356   0.0015067   0.0002131   0.0005508   0.0004370   0.0002463
    8   0.0015009   0.0016412   0.0002456   0.0004342   0.0005539   0.0002136
    9   0.0000603   0.0000094  -0.0000010   0.0000415  -0.0000000   0.0000015
   10   0.0000633   0.0000084   0.0000453  -0.0000006   0.0000024  -0.0000001
   11   0.0000083   0.0000636  -0.0000001   0.0000024  -0.0000006   0.0000454
   12   0.0000094   0.0000606   0.0000015  -0.0000000   0.0000417  -0.0000010
            7           8           9          10          11          12
    1   0.0016356   0.0015009   0.0000603   0.0000633   0.0000083   0.0000094
    2   0.0015067   0.0016412   0.0000094   0.0000084   0.0000636   0.0000606
    3   0.0002131   0.0002456  -0.0000010   0.0000453  -0.0000001   0.0000015
    4   0.0005508   0.0004342   0.0000415  -0.0000006   0.0000024  -0.0000000
    5   0.0004370   0.0005539  -0.0000000   0.0000024  -0.0000006   0.0000417
    6   0.0002463   0.0002136   0.0000015  -0.0000001   0.0000454  -0.0000010
    7   3.9268112   2.0653296   0.9430792   0.9431338  -0.0145927  -0.0147284
    8   2.0653296   3.9267089  -0.0147226  -0.0146342   0.9430864   0.9430602
    9   0.9430792  -0.0147226   0.9224461  -0.0186371   0.0109286   0.0016864
   10   0.9431338  -0.0146342  -0.0186371   0.9227320   0.0017966   0.0109543
   11  -0.0145927   0.9430864   0.0109286   0.0017966   0.9225991  -0.0187389
   12  -0.0147284   0.9430602   0.0016864   0.0109543  -0.0187389   0.9223458


 Calculating analytic gradient of the SCF energy
 Gradient of SCF Energy
            1           2           3           4           5           6
    1  -0.0030413  -0.0029133   0.0169041  -0.0200529  -0.0196355   0.0166033
    2   0.0043212  -0.0069438   0.0141326   0.0140606  -0.0145502  -0.0146715
    3   0.0296226   0.0285569   0.0169557   0.0162108   0.0161619   0.0168904
            7           8           9          10          11          12
    1  -0.6793545  -0.5045686   0.7479426  -0.0640772  -0.2986430   0.8108363
    2   0.2082358  -0.3653822  -0.5203494  -0.0288824   0.1721978   0.5378315
    3  -0.3962965  -0.2040732   0.2393491   0.0015516   0.0283807   0.2066901
 Max gradient component =       8.108E-01
 RMS gradient           =       2.934E-01
 Gradient time:  CPU 2.61 s  wall 1.31 s
 Geometry Optimization Parameters
   NAtoms,    NIC,     NZ,  NCons,   NDum,   NFix, NCnnct, MaxDiis
       12     522       0       0       0       0       0       0


** GEOMETRY OPTIMIZATION IN DELOCALIZED INTERNAL COORDINATES **
   Searching for a Minimum

   Optimization Cycle:   4

                       Coordinates (Angstroms)
     ATOM                X               Y               Z
      1  C        -0.0000937659   -0.0583677236    0.9891379318
      2  C        -0.0002615783    1.3900211620    0.9891478603
      3  H        -0.9970965687   -0.6729899814    1.0081559739
      4  H         0.9978256393   -0.6733975157    1.0077523331
[...]
 ----------------------------------------------------------------
 Nuclear Repulsion Energy =         105.67190738 hartrees
 There are       16 alpha and       15 beta electrons
 Applying Cartesian multipole field
    Component          Value
    ---------          -----
     (2,0,0)        1.00000E-10
     (0,2,0)        2.00000E-11
     (0,0,2)       -3.00000E-11
 Nucleus-field energy     =    -0.0000000409 hartrees
 Requested basis set is 6-31G(d)
 There are 32 shells and 76 basis functions
 A cutoff of  1.0D-14 yielded    499 shell pairs
 There are      2959 function pairs
 Smallest overlap matrix eigenvalue = 2.06E-03
 Guess MOs from SCF MO coefficient file
 Reading MOs from coefficient file
 Reading MOs from coefficient file
 Long-range K will be added via erf
 Coulomb attenuation parameter = 0.2 bohr**(-1)
 An unrestricted hybrid HF-DFT SCF calculation will be
 performed using Pulay DIIS extrapolation
 Exchange:     0.2220 Hartree-Fock + 1.0000 Constrained DFT (Becke Weights) + 1.0000 wB97X-D + LR-HF
 Correlation:  1.0000 wB97X-D
 Using SG-2 standard quadrature grid
 Dispersion:   Grimme D
 SCF converges when DIIS error is below 1.0E-08
 Geometry optimization detected.  Setting ReadMinima to 0
 Setting SaveMinima to 0
 -------------------------------------------------------
 OpenMP BLAS3 based DFT computing Module                
 Release: version 1.0, May 2013, Q-Chem Inc. Pittsburgh 
 -------------------------------------------------------
Constraint 0 : -1.0000000000
 -------------------------------------------------------
 OpenMP BLAS3 based DFT computing Module                
 Release: version 1.0, May 2013, Q-Chem Inc. Pittsburgh 
 -------------------------------------------------------
Constraint 1 : 1.0000000000
 -------------------------------------------------------
 OpenMP BLAS3 based DFT computing Module                
 Release: version 1.0, May 2013, Q-Chem Inc. Pittsburgh 
 -------------------------------------------------------
 ---------------------------------------
  Cycle       Energy         DIIS Error
 ---------------------------------------
    1    -150.9452971869      8.82E-03
    2    -156.0362236414      1.17E-03
    3    -156.0365814913      5.38E-04
    4    -156.0367445482      1.19E-04
    5    -156.0367534748      2.59E-05
    6    -156.0367540176      5.55E-06
    7    -156.0367541506      1.83E-06
    8    -156.0367541856      1.14E-06
    9    -156.0367542076      7.18E-07
   10    -156.0367542198      2.99E-07
   11    -156.0367542222      8.88E-08
   12    -156.0367542306      3.47E-08
   13    -156.0367542250      1.75E-08
Constraint 0 : -1.0000000000
Constraint 1 : 1.0000000000
 Lam   0.3471225260621322
 Lam  -0.3012060389676620
   14    -156.0367542152      4.74E-09 Convergence criterion met
 ---------------------------------------
 One-Electron    Energy =  -409.7108788651
 Total Coulomb   Energy =   172.7865626544
 Alpha Exchange  Energy =    -4.0339842674
 Beta  Exchange  Energy =    -3.8644473353
 DFT   Exchange  Energy =   -15.6324249868
 DFT Correlation Energy =    -1.2534887490
 Nuclear Repu.   Energy =   105.6719073342
 Nuclear Attr.   Energy =  -568.0547977732
 Kinetic         Energy =   158.3439189081
 <S^2> = 0.7550

                  CDFT Becke Populations
----------------------------------------------------
            Atom      Excess Electrons     Population (a.u.)    Net Spin
       1       C       -0.071217        5.928783          0.514490
       2       C       -0.071069        5.928931          0.514104
       3       H       -0.216808        0.783192         -0.007420
       4       H       -0.212784        0.787216         -0.006925
       5       H       -0.216687        0.783313         -0.007396
       6       H       -0.211435        0.788565         -0.006853
       7       C       -0.146336        5.853664         -0.002274
       8       C       -0.046054        5.953946          0.000346
       9       H        0.161076        1.161076          0.000536
      10       H       -0.015955        0.984045          0.000005
      11       H        0.011739        1.011739          0.000308
      12       H        0.033349        1.033349          0.001001
----------------------------------------------------

 SCF time:  CPU 15.84 s  wall 7.98 s
 Final Alpha MO Eigenvalues
            1           2           3           4           5           6
    1 -10.6269316 -10.6264651 -10.3209873 -10.3133263  -1.1158532  -1.0764760
            7           8           9          10          11          12
    1  -0.9075291  -0.8414890  -0.7783890  -0.7763932  -0.7450210  -0.6692365
           13          14          15          16          17          18
    1  -0.6560412  -0.6330306  -0.5642821  -0.5128522  -0.2151155  -0.0295421
           19          20          21          22          23          24
    1  -0.0206607  -0.0148112   0.0442623   0.1005032   0.1331759   0.1531645
           25          26          27          28          29          30
    1   0.1774655   0.2205293   0.2745220   0.3534520   0.3709728   0.3930407
           31          32          33          34          35          36
    1   0.4006316   0.4356097   0.4661539   0.4810563   0.4870084   0.5490873
           37          38          39          40          41          42
    1   0.5777673   0.6401782   0.6620405   0.6792905   0.6892171   0.7284338
           43          44          45          46          47          48
    1   0.7361312   0.8475657   0.8870321   0.9275029   0.9718678   1.0314398
           49          50          51          52          53          54
    1   1.2130949   1.2177164   1.2544641   1.3138628   1.3656013   1.4454370
           55          56          57          58          59          60
    1   1.5711986   1.5836467   1.6247693   1.6599356   1.6908165   1.7684701
           61          62          63          64          65          66
    1   1.9138115   1.9833942   2.0521482   2.1772734   2.2560307   2.2757847
           67          68          69          70          71          72
    1   2.4256931   2.6036670   2.6997704   3.0438493   3.3826854   3.5630990
           73          74          75          76
    1   3.8140032   4.0465330   4.1437599   4.5049148
 Final Beta MO Eigenvalues
            1           2           3           4           5           6
    1 -10.3211057 -10.3134413 -10.0189030 -10.0185284  -1.0766495  -0.8415978
            7           8           9          10          11          12
    1  -0.7784429  -0.6559937  -0.5643315  -0.5124212  -0.4738696  -0.2856434
           13          14          15          16          17          18
    1  -0.1656764  -0.1321118  -0.0619592   0.0473773   0.1585391   0.1871357
           19          20          21          22          23          24
    1   0.2264750   0.2633265   0.2872766   0.3937643   0.4001056   0.4620371
           25          26          27          28          29          30
    1   0.4875736   0.5765404   0.5797068   0.5877539   0.6013019   0.6371758
           31          32          33          34          35          36
    1   0.6788525   0.7092511   0.7481036   0.8493628   0.9000540   0.9660727
           37          38          39          40          41          42
    1   0.9717459   1.0372161   1.0392519   1.0956677   1.1103662   1.1351633
           43          44          45          46          47          48
    1   1.2147303   1.2562596   1.2686457   1.2921335   1.3140934   1.3360022
           49          50          51          52          53          54
    1   1.3413598   1.4468474   1.5140851   1.5716233   1.6329687   1.6920332
           55          56          57          58          59          60
    1   1.8674281   1.9836618   2.0165563   2.1774371   2.2305076   2.2560665
           61          62          63          64          65          66
    1   2.2672469   2.2915537   2.3862686   2.5610294   2.6053863   2.6976155
           67          68          69          70          71          72
    1   2.7039867   2.8869587   3.0419554   3.0524492   3.3828579   3.5638674
           73          74          75          76
    1   4.1432596   4.4446694   4.5056940   4.6776847
 SCF   energy in the final basis set = -156.03675422
 Total energy in the final basis set = -156.03675422
 
 --------------------------------------------------------------
 
                    Orbital Energies (a.u.)
 --------------------------------------------------------------
 
 Alpha MOs
 -- Occupied --
-10.6269 -10.6265 -10.3210 -10.3133  -1.1159  -1.0765  -0.9075  -0.8415
 -0.7784  -0.7764  -0.7450  -0.6692  -0.6560  -0.6330  -0.5643  -0.5129
 -- Virtual --
 -0.2151  -0.0295  -0.0207  -0.0148   0.0443   0.1005   0.1332   0.1532
  0.1775   0.2205   0.2745   0.3535   0.3710   0.3930   0.4006   0.4356
  0.4662   0.4811   0.4870   0.5491   0.5778   0.6402   0.6620   0.6793
  0.6892   0.7284   0.7361   0.8476   0.8870   0.9275   0.9719   1.0314
  1.2131   1.2177   1.2545   1.3139   1.3656   1.4454   1.5712   1.5836
  1.6248   1.6599   1.6908   1.7685   1.9138   1.9834   2.0521   2.1773
  2.2560   2.2758   2.4257   2.6037   2.6998   3.0438   3.3827   3.5631
  3.8140   4.0465   4.1438   4.5049
 
 Beta MOs
 -- Occupied --
-10.3211 -10.3134 -10.0189 -10.0185  -1.0766  -0.8416  -0.7784  -0.6560
 -0.5643  -0.5124  -0.4739  -0.2856  -0.1657  -0.1321  -0.0620
 -- Virtual --
  0.0474   0.1585   0.1871   0.2265   0.2633   0.2873   0.3938   0.4001
  0.4620   0.4876   0.5765   0.5797   0.5878   0.6013   0.6372   0.6789
  0.7093   0.7481   0.8494   0.9001   0.9661   0.9717   1.0372   1.0393
  1.0957   1.1104   1.1352   1.2147   1.2563   1.2686   1.2921   1.3141
  1.3360   1.3414   1.4468   1.5141   1.5716   1.6330   1.6920   1.8674
  1.9837   2.0166   2.1774   2.2305   2.2561   2.2672   2.2916   2.3863
  2.5610   2.6054   2.6976   2.7040   2.8870   3.0420   3.0524   3.3829
  3.5639   4.1433   4.4447   4.5057   4.6777
 --------------------------------------------------------------
 
          Ground-State Mulliken Net Atomic Charges

     Atom                 Charge (a.u.)    Spin (a.u.)
  --------------------------------------------------------
      1 C                    -0.158840       0.551081
      2 C                    -0.159507       0.550120
      3 H                     0.333569      -0.024855
      4 H                     0.327097      -0.024676
      5 H                     0.328373      -0.024646
      6 H                     0.331683      -0.024397
      7 C                    -0.117389      -0.011580
      8 C                    -0.368420      -0.001985
      9 H                     0.029971       0.007368
     10 H                     0.158583      -0.000169
     11 H                     0.153066       0.000291
     12 H                     0.141815       0.003447
  --------------------------------------------------------
  Sum of atomic charges =     1.000000
  Sum of spin   charges =     1.000000

 -----------------------------------------------------------------
                    Cartesian Multipole Moments
 -----------------------------------------------------------------
    Charge (ESU x 10^10)
                 4.8032
    Dipole Moment (Debye)
         X      -0.0270      Y       3.2655      Z       4.6226
       Tot       5.6597
    Quadrupole Moments (Debye-Ang)
        XX     -19.0956     XY       0.2156     YY     -14.1093
        XZ      -0.7678     YZ       3.1369     ZZ     -20.7034
    Octopole Moments (Debye-Ang^2)
       XXX       0.0093    XXY     -12.6175    XYY      -0.4837
       YYY     -30.6156    XXZ     -64.6155    XYZ       0.4305
       YYZ     -61.3599    XZZ      -5.4318    YZZ     -13.4883
       ZZZ    -226.8812
    Hexadecapole Moments (Debye-Ang^3)
      XXXX     -35.4173   XXXY      -0.5205   XXYY     -22.4523
      XYYY      -1.3060   YYYY    -136.4481   XXXZ      -0.2728
      XXYZ     -41.9872   XYYZ      -1.2952   YYYZ    -121.5376
      XXZZ    -308.2174   XYZZ       0.8819   YYZZ    -334.8675
      XZZZ     -33.2570   YZZZ    -147.0071   ZZZZ   -2057.1280
 -----------------------------------------------------------------
 Mayer SCF Bond Order, atomic valence on the diagonal:

            1           2           3           4           5           6
    1   3.1314042   1.4024779   0.8646932   0.8699094  -0.0046282  -0.0031896
    2   1.4024779   3.1310762  -0.0027618  -0.0054196   0.8686272   0.8659425
    3   0.8646932  -0.0027618   0.8720323   0.0009640   0.0074941   0.0012683
    4   0.8699094  -0.0054196   0.0009640   0.8750203   0.0014819   0.0073954
    5  -0.0046282   0.8686272   0.0074941   0.0014819   0.8745890   0.0007984
    6  -0.0031896   0.8659425   0.0012683   0.0073954   0.0007984   0.8725225
    7   0.0006381   0.0007014   0.0001644   0.0002145   0.0002693   0.0001532
    8   0.0009462   0.0009755   0.0001950   0.0002528   0.0003411   0.0001214
    9   0.0004797   0.0001831  -0.0000331   0.0002249   0.0000212   0.0000018
   10   0.0000463  -0.0000020   0.0000404   0.0000009   0.0000033  -0.0000001
   11   0.0000099   0.0000559  -0.0000013   0.0000029  -0.0000038   0.0000403
   12   0.0000213   0.0002960   0.0000091  -0.0000068   0.0001846  -0.0000090
            7           8           9          10          11          12
    1   0.0006381   0.0009462   0.0004797   0.0000463   0.0000099   0.0000213
    2   0.0007014   0.0009755   0.0001831  -0.0000020   0.0000559   0.0002960
    3   0.0001644   0.0001950  -0.0000331   0.0000404  -0.0000013   0.0000091
    4   0.0002145   0.0002528   0.0002249   0.0000009   0.0000029  -0.0000068
    5   0.0002693   0.0003411   0.0000212   0.0000033  -0.0000038   0.0001846
    6   0.0001532   0.0001214   0.0000018  -0.0000001   0.0000403  -0.0000090
    7   3.9792838   2.1377054   0.9066640   0.9520890  -0.0092681  -0.0100474
    8   2.1377054   4.0643746   0.0567951  -0.0169626   0.9420344   0.9419705
    9   0.9066640   0.0567951   0.9007110  -0.0636088   0.0142278  -0.0142447
   10   0.9520890  -0.0169626  -0.0636088   0.8855933  -0.0004900   0.0144769
   11  -0.0092681   0.9420344   0.0142278  -0.0004900   0.9046849  -0.0419230
   12  -0.0100474   0.9419705  -0.0142447   0.0144769  -0.0419230   0.8907275


 Calculating analytic gradient of the SCF energy
 Gradient of SCF Energy
            1           2           3           4           5           6
    1  -0.0079805  -0.0032751   0.0269231  -0.0269646  -0.0250266   0.0271473
    2   0.0206481  -0.0284995   0.0181346   0.0190733  -0.0196211  -0.0250185
    3   0.0155580   0.0138261   0.0110062   0.0112531   0.0082742   0.0075832
            7           8           9          10          11          12
    1  -0.3401621   0.0893227   0.2972234   0.0242177  -0.0186388  -0.0427863
    2   0.1177393   0.3125699  -0.2816353   0.0036039  -0.0489472  -0.0880475
    3  -0.3867174   0.0793303   0.2550529  -0.0201773  -0.0133717   0.0183822
 Max gradient component =       3.867E-01
 RMS gradient           =       1.338E-01
 Gradient time:  CPU 2.58 s  wall 1.30 s
 Geometry Optimization Parameters
   NAtoms,    NIC,     NZ,  NCons,   NDum,   NFix, NCnnct, MaxDiis
       12     522       0       0       0       0       0       0

 Cartesian Hessian Update
 Hessian updated using BFGS update


** GEOMETRY OPTIMIZATION IN DELOCALIZED INTERNAL COORDINATES **
   Searching for a Minimum

   Optimization Cycle:  50

                       Coordinates (Angstroms)
     ATOM                X               Y               Z
      1  C         0.0009728435   -0.0502322867    0.9755926560
      2  C         0.0012846787    1.3974681411    0.9592996631
      3  H        -0.9952843067   -0.7111409045    1.0326340086
      4  H         1.0510210520   -0.6335552015    0.9824408748
      5  H         1.0467529401    2.0072977253    0.9579820524
      6  H        -0.9940888287    2.0440941170    0.9962115476
      7  C         0.0271553772    0.0998995796    5.1124850216
      8  C         0.0204117184    1.1669450354    5.0494586927
      9  H         0.5490165671   -0.1500664417    4.8423581502
     10  H        -0.7166885346   -0.3868600132    5.1880219763
     11  H        -0.7031152906    1.6440601431    5.0844193298
     12  H         0.7125617836    1.5640901060    4.8190960268
   Point Group: c1    Number of degrees of freedom:    30


   Energy is   -156.036754215

 Hessian updated using BFGS update

 30 Hessian modes will be used to form the next step
  Hessian Eigenvalues:
     0.000299    0.004991    0.005740    0.006823    0.011890    0.012663
     0.012944    0.015929    0.017601    0.017833    0.019049    0.025346
     0.036516    0.043408    0.045226    0.046916    0.049101    0.051263
     0.058915    0.061809    0.071365    0.132058    0.235053    0.239961
     0.260256    0.267541    0.305629    0.328460    1.315505    2.298184

 Minimum search - taking simple RFO step
 Searching for Lamda that Minimizes Along All modes
 Value Taken    Lamda =  -0.16289249
 Calculated Step too Large.  Step scaled by  0.414369
 Step Taken.  Stepsize is  0.300000

                             Maximum     Tolerance    Cnvgd?
         Gradient           0.134290      0.000300      NO
         Displacement       0.109000      0.001200      NO
         Energy change      0.205398      0.000001      NO


 New Cartesian Coordinates Obtained by Inverse Iteration

 Displacement from previous Coordinates is:  0.158879
 ----------------------------------------------------------------
             Standard Nuclear Orientation (Angstroms)
    I     Atom           X                Y                Z
 ----------------------------------------------------------------
    1      C       0.0010154111    -0.0606468840     0.9735637409
    2      C       0.0009957920     1.4100617235     0.9552394125
    3      H      -1.0081528200    -0.7352644362     1.0371959526
    4      H       1.0680923584    -0.6454294743     0.9828208810
    5      H       1.0634859550     2.0263227858     0.9545044269
    6      H      -1.0039990414     2.0682543918     0.9958203600
    7      C       0.0370024103     0.1052167781     5.1189037181
    8      C       0.0280163251     1.1429321584     5.0455449755
    9      H       0.5159334512    -0.1189672464     4.8333508949
   10      H      -0.7041484336    -0.3835528501     5.2081214523
   11      H      -0.7124951609     1.6408748154     5.0870410808
   12      H       0.7142537527     1.5421982380     4.8078931046
 ----------------------------------------------------------------
 Nuclear Repulsion Energy =         106.07355433 hartrees
 There are       16 alpha and       15 beta electrons

                       Distance Matrix (Angstroms)
             C (  1)   C (  2)   H (  3)   H (  4)   H (  5)   H (  6)
   C (  2)  1.470823
   H (  3)  1.215557  2.372240
   H (  4)  1.216844  2.316139  2.078899
   H (  5)  2.341933  1.228277  3.453243  2.671906
   H (  6)  2.354309  1.202031  2.803827  3.414354  2.068323
   C (  7)  4.148813  4.363487  4.296405  4.328256  4.699632  4.683697
   C (  8)  4.246217  4.099108  4.546222  4.559136  4.311518  4.280368
   H (  9)  3.894419  4.200338  4.136841  3.925382  4.466266  4.671271
   H ( 10)  4.304997  4.669185  4.196753  4.589399  5.198585  4.883109
   H ( 11)  4.508322  4.199301  4.704753  5.024172  4.514481  4.123799
   H ( 12)  4.216622  3.920349  4.729871  4.420644  3.899352  4.214383
             C (  7)   C (  8)   H (  9)   H ( 10)   H ( 11)
   C (  8)  1.040344
   H (  9)  0.600977  1.369481
   H ( 10)  0.892278  1.700780  1.303479
   H ( 11)  1.709096  0.893323  2.161120  2.028062
   H ( 12)  1.618738  0.828742  1.673156  2.424988  1.457146
 


 *******************************************
 **  MAXIMUM OPTIMIZATION CYCLES REACHED  **
 *******************************************

 Q-Chem fatal error occurred in module 0, line  455:

 Maximum optimization cycles reached

remove work dirs /data/qchem2901895.0 -- /data/qchem2901895.-1
rm -rf /data/qchem2901895
